 VARIABLES= X1,X2,Y1,Y2,R,ID,RK
ZONE T="    2" 
SOLUTIONTIME=     0.00100000,STRANDID=   1
  0.10199412E+00  0.10000000E+00  0.99411601E+00  0.45608003E-13  0.10000000E+00    1    0
 VARIABLES= X1,X2,Y1,Y2,R,ID,RK
ZONE T="    4" 
SOLUTIONTIME=     0.00300000,STRANDID=   1
  0.10397646E+00  0.10000000E+00  0.98823202E+00  0.90869835E-13  0.10000000E+00    1    0
 VARIABLES= X1,X2,Y1,Y2,R,ID,RK
ZONE T="    6" 
SOLUTIONTIME=     0.00500000,STRANDID=   1
  0.10594704E+00  0.10000000E+00  0.98234803E+00  0.13578550E-12  0.10000000E+00    1    0
 VARIABLES= X1,X2,Y1,Y2,R,ID,RK
ZONE T="    8" 
SOLUTIONTIME=     0.00700000,STRANDID=   1
  0.10790586E+00  0.10000000E+00  0.97646404E+00  0.18035499E-12  0.10000000E+00    1    0
 VARIABLES= X1,X2,Y1,Y2,R,ID,RK
ZONE T="   10" 
SOLUTIONTIME=     0.00900000,STRANDID=   1
  0.10985290E+00  0.10000000E+00  0.97058005E+00  0.22457831E-12  0.10000000E+00    1    0
 VARIABLES= X1,X2,Y1,Y2,R,ID,RK
ZONE T="   12" 
SOLUTIONTIME=     0.01100000,STRANDID=   1
  0.11178818E+00  0.10000000E+00  0.96469606E+00  0.26845546E-12  0.10000000E+00    1    0
 VARIABLES= X1,X2,Y1,Y2,R,ID,RK
ZONE T="   14" 
SOLUTIONTIME=     0.01300000,STRANDID=   1
  0.11371168E+00  0.10000000E+00  0.95881207E+00  0.31198644E-12  0.10000000E+00    1    0
 VARIABLES= X1,X2,Y1,Y2,R,ID,RK
ZONE T="   16" 
SOLUTIONTIME=     0.01500000,STRANDID=   1
  0.11562342E+00  0.10000000E+00  0.95292808E+00  0.35517125E-12  0.10000000E+00    1    0
 VARIABLES= X1,X2,Y1,Y2,R,ID,RK
ZONE T="   18" 
SOLUTIONTIME=     0.01700000,STRANDID=   1
  0.11752340E+00  0.10000000E+00  0.94704409E+00  0.39800989E-12  0.10000000E+00    1    0
 VARIABLES= X1,X2,Y1,Y2,R,ID,RK
ZONE T="   20" 
SOLUTIONTIME=     0.01900000,STRANDID=   1
  0.11941160E+00  0.10000000E+00  0.94116010E+00  0.44050236E-12  0.10000000E+00    1    0
 VARIABLES= X1,X2,Y1,Y2,R,ID,RK
ZONE T="   22" 
SOLUTIONTIME=     0.02100000,STRANDID=   1
  0.12128804E+00  0.10000000E+00  0.93527611E+00  0.48264865E-12  0.10000000E+00    1    0
 VARIABLES= X1,X2,Y1,Y2,R,ID,RK
ZONE T="   24" 
SOLUTIONTIME=     0.02300000,STRANDID=   1
  0.12315271E+00  0.10000000E+00  0.92939212E+00  0.52444878E-12  0.10000000E+00    1    0
 VARIABLES= X1,X2,Y1,Y2,R,ID,RK
ZONE T="   26" 
SOLUTIONTIME=     0.02500000,STRANDID=   1
  0.12500561E+00  0.10000000E+00  0.92350813E+00  0.56590274E-12  0.10000000E+00    1    0
 VARIABLES= X1,X2,Y1,Y2,R,ID,RK
ZONE T="   28" 
SOLUTIONTIME=     0.02700000,STRANDID=   1
  0.12684674E+00  0.10000000E+00  0.91762414E+00  0.60701053E-12  0.10000000E+00    1    0
 VARIABLES= X1,X2,Y1,Y2,R,ID,RK
ZONE T="   30" 
SOLUTIONTIME=     0.02900000,STRANDID=   1
  0.12867610E+00  0.10000000E+00  0.91174015E+00  0.64777214E-12  0.10000000E+00    1    0
 VARIABLES= X1,X2,Y1,Y2,R,ID,RK
ZONE T="   32" 
SOLUTIONTIME=     0.03100000,STRANDID=   1
  0.13049370E+00  0.10000000E+00  0.90585616E+00  0.68818759E-12  0.10000000E+00    1    0
 VARIABLES= X1,X2,Y1,Y2,R,ID,RK
ZONE T="   34" 
SOLUTIONTIME=     0.03300000,STRANDID=   1
  0.13229953E+00  0.10000000E+00  0.89997217E+00  0.72825686E-12  0.10000000E+00    1    0
 VARIABLES= X1,X2,Y1,Y2,R,ID,RK
ZONE T="   36" 
SOLUTIONTIME=     0.03500000,STRANDID=   1
  0.13409359E+00  0.10000000E+00  0.89408818E+00  0.76797997E-12  0.10000000E+00    1    0
 VARIABLES= X1,X2,Y1,Y2,R,ID,RK
ZONE T="   38" 
SOLUTIONTIME=     0.03700000,STRANDID=   1
  0.13587588E+00  0.10000000E+00  0.88820419E+00  0.80735690E-12  0.10000000E+00    1    0
 VARIABLES= X1,X2,Y1,Y2,R,ID,RK
ZONE T="   40" 
SOLUTIONTIME=     0.03900000,STRANDID=   1
  0.13764640E+00  0.10000000E+00  0.88232020E+00  0.84638767E-12  0.10000000E+00    1    0
 VARIABLES= X1,X2,Y1,Y2,R,ID,RK
ZONE T="   42" 
SOLUTIONTIME=     0.04100000,STRANDID=   1
  0.13940516E+00  0.10000000E+00  0.87643621E+00  0.88507226E-12  0.10000000E+00    1    0
 VARIABLES= X1,X2,Y1,Y2,R,ID,RK
ZONE T="   44" 
SOLUTIONTIME=     0.04300000,STRANDID=   1
  0.14115215E+00  0.10000000E+00  0.87055222E+00  0.92341069E-12  0.10000000E+00    1    0
 VARIABLES= X1,X2,Y1,Y2,R,ID,RK
ZONE T="   46" 
SOLUTIONTIME=     0.04500000,STRANDID=   1
  0.14288737E+00  0.10000000E+00  0.86466823E+00  0.96140294E-12  0.10000000E+00    1    0
 VARIABLES= X1,X2,Y1,Y2,R,ID,RK
ZONE T="   48" 
SOLUTIONTIME=     0.04700000,STRANDID=   1
  0.14461082E+00  0.10000000E+00  0.85878424E+00  0.99904902E-12  0.10000000E+00    1    0
 VARIABLES= X1,X2,Y1,Y2,R,ID,RK
ZONE T="   50" 
SOLUTIONTIME=     0.04900000,STRANDID=   1
  0.14632251E+00  0.10000000E+00  0.85290025E+00  0.10363489E-11  0.10000000E+00    1    0
 VARIABLES= X1,X2,Y1,Y2,R,ID,RK
ZONE T="   52" 
SOLUTIONTIME=     0.05100000,STRANDID=   1
  0.14802242E+00  0.10000000E+00  0.84701626E+00  0.10733027E-11  0.10000000E+00    1    0
 VARIABLES= X1,X2,Y1,Y2,R,ID,RK
ZONE T="   54" 
SOLUTIONTIME=     0.05300000,STRANDID=   1
  0.14971057E+00  0.10000000E+00  0.84113227E+00  0.11099102E-11  0.10000000E+00    1    0
 VARIABLES= X1,X2,Y1,Y2,R,ID,RK
ZONE T="   56" 
SOLUTIONTIME=     0.05500000,STRANDID=   1
  0.15138695E+00  0.10000000E+00  0.83524828E+00  0.11461716E-11  0.10000000E+00    1    0
 VARIABLES= X1,X2,Y1,Y2,R,ID,RK
ZONE T="   58" 
SOLUTIONTIME=     0.05700000,STRANDID=   1
  0.15305156E+00  0.10000000E+00  0.82936429E+00  0.11820869E-11  0.10000000E+00    1    0
 VARIABLES= X1,X2,Y1,Y2,R,ID,RK
ZONE T="   60" 
SOLUTIONTIME=     0.05900000,STRANDID=   1
  0.15470441E+00  0.10000000E+00  0.82348030E+00  0.12176559E-11  0.10000000E+00    1    0
 VARIABLES= X1,X2,Y1,Y2,R,ID,RK
ZONE T="   62" 
SOLUTIONTIME=     0.06100000,STRANDID=   1
  0.15634549E+00  0.10000000E+00  0.81759631E+00  0.12528788E-11  0.10000000E+00    1    0
 VARIABLES= X1,X2,Y1,Y2,R,ID,RK
ZONE T="   64" 
SOLUTIONTIME=     0.06300000,STRANDID=   1
  0.15797479E+00  0.10000000E+00  0.81171232E+00  0.12877555E-11  0.10000000E+00    1    0
 VARIABLES= X1,X2,Y1,Y2,R,ID,RK
ZONE T="   66" 
SOLUTIONTIME=     0.06500000,STRANDID=   1
  0.15959233E+00  0.10000000E+00  0.80582833E+00  0.13222861E-11  0.10000000E+00    1    0
 VARIABLES= X1,X2,Y1,Y2,R,ID,RK
ZONE T="   68" 
SOLUTIONTIME=     0.06700000,STRANDID=   1
  0.16119811E+00  0.10000000E+00  0.79994434E+00  0.13564705E-11  0.10000000E+00    1    0
 VARIABLES= X1,X2,Y1,Y2,R,ID,RK
ZONE T="   70" 
SOLUTIONTIME=     0.06900000,STRANDID=   1
  0.16279211E+00  0.10000000E+00  0.79406035E+00  0.13903087E-11  0.10000000E+00    1    0
 VARIABLES= X1,X2,Y1,Y2,R,ID,RK
ZONE T="   72" 
SOLUTIONTIME=     0.07100000,STRANDID=   1
  0.16437435E+00  0.10000000E+00  0.78817636E+00  0.14238007E-11  0.10000000E+00    1    0
 VARIABLES= X1,X2,Y1,Y2,R,ID,RK
ZONE T="   74" 
SOLUTIONTIME=     0.07300000,STRANDID=   1
  0.16594482E+00  0.10000000E+00  0.78229237E+00  0.14569466E-11  0.10000000E+00    1    0
 VARIABLES= X1,X2,Y1,Y2,R,ID,RK
ZONE T="   76" 
SOLUTIONTIME=     0.07500000,STRANDID=   1
  0.16750352E+00  0.10000000E+00  0.77640838E+00  0.14897463E-11  0.10000000E+00    1    0
 VARIABLES= X1,X2,Y1,Y2,R,ID,RK
ZONE T="   78" 
SOLUTIONTIME=     0.07700000,STRANDID=   1
  0.16905045E+00  0.10000000E+00  0.77052439E+00  0.15221998E-11  0.10000000E+00    1    0
 VARIABLES= X1,X2,Y1,Y2,R,ID,RK
ZONE T="   80" 
SOLUTIONTIME=     0.07900000,STRANDID=   1
  0.17058562E+00  0.10000000E+00  0.76464040E+00  0.15543072E-11  0.10000000E+00    1    0
 VARIABLES= X1,X2,Y1,Y2,R,ID,RK
ZONE T="   82" 
SOLUTIONTIME=     0.08100000,STRANDID=   1
  0.17210901E+00  0.10000000E+00  0.75875641E+00  0.15860683E-11  0.10000000E+00    1    0
 VARIABLES= X1,X2,Y1,Y2,R,ID,RK
ZONE T="   84" 
SOLUTIONTIME=     0.08300000,STRANDID=   1
  0.17362064E+00  0.10000000E+00  0.75287242E+00  0.16174834E-11  0.10000000E+00    1    0
 VARIABLES= X1,X2,Y1,Y2,R,ID,RK
ZONE T="   86" 
SOLUTIONTIME=     0.08500000,STRANDID=   1
  0.17512050E+00  0.10000000E+00  0.74698843E+00  0.16485522E-11  0.10000000E+00    1    0
 VARIABLES= X1,X2,Y1,Y2,R,ID,RK
ZONE T="   88" 
SOLUTIONTIME=     0.08700000,STRANDID=   1
  0.17660860E+00  0.10000000E+00  0.74110444E+00  0.16792749E-11  0.10000000E+00    1    0
 VARIABLES= X1,X2,Y1,Y2,R,ID,RK
ZONE T="   90" 
SOLUTIONTIME=     0.08900000,STRANDID=   1
  0.17808492E+00  0.10000000E+00  0.73522045E+00  0.17096514E-11  0.10000000E+00    1    0
 VARIABLES= X1,X2,Y1,Y2,R,ID,RK
ZONE T="   92" 
SOLUTIONTIME=     0.09100000,STRANDID=   1
  0.17954948E+00  0.10000000E+00  0.72933646E+00  0.17396817E-11  0.10000000E+00    1    0
 VARIABLES= X1,X2,Y1,Y2,R,ID,RK
ZONE T="   94" 
SOLUTIONTIME=     0.09300000,STRANDID=   1
  0.18100227E+00  0.10000000E+00  0.72345247E+00  0.17693659E-11  0.10000000E+00    1    0
 VARIABLES= X1,X2,Y1,Y2,R,ID,RK
ZONE T="   96" 
SOLUTIONTIME=     0.09500000,STRANDID=   1
  0.18244329E+00  0.10000000E+00  0.71756848E+00  0.17987039E-11  0.10000000E+00    1    0
 VARIABLES= X1,X2,Y1,Y2,R,ID,RK
ZONE T="   98" 
SOLUTIONTIME=     0.09700000,STRANDID=   1
  0.18387254E+00  0.10000000E+00  0.71168449E+00  0.18276957E-11  0.10000000E+00    1    0
 VARIABLES= X1,X2,Y1,Y2,R,ID,RK
ZONE T="  100" 
SOLUTIONTIME=     0.09900000,STRANDID=   1
  0.18529003E+00  0.10000000E+00  0.70580050E+00  0.18563413E-11  0.10000000E+00    1    0
 VARIABLES= X1,X2,Y1,Y2,R,ID,RK
ZONE T="  102" 
SOLUTIONTIME=     0.10100000,STRANDID=   1
  0.18669574E+00  0.10000000E+00  0.69991651E+00  0.18846408E-11  0.10000000E+00    1    0
 VARIABLES= X1,X2,Y1,Y2,R,ID,RK
ZONE T="  104" 
SOLUTIONTIME=     0.10300000,STRANDID=   1
  0.18808969E+00  0.10000000E+00  0.69403252E+00  0.19125941E-11  0.10000000E+00    1    0
 VARIABLES= X1,X2,Y1,Y2,R,ID,RK
ZONE T="  106" 
SOLUTIONTIME=     0.10500000,STRANDID=   1
  0.18947187E+00  0.10000000E+00  0.68814853E+00  0.19402013E-11  0.10000000E+00    1    0
 VARIABLES= X1,X2,Y1,Y2,R,ID,RK
ZONE T="  108" 
SOLUTIONTIME=     0.10700000,STRANDID=   1
  0.19084229E+00  0.10000000E+00  0.68226454E+00  0.19674622E-11  0.10000000E+00    1    0
 VARIABLES= X1,X2,Y1,Y2,R,ID,RK
ZONE T="  110" 
SOLUTIONTIME=     0.10900000,STRANDID=   1
  0.19220093E+00  0.10000000E+00  0.67638055E+00  0.19943770E-11  0.10000000E+00    1    0
 VARIABLES= X1,X2,Y1,Y2,R,ID,RK
ZONE T="  112" 
SOLUTIONTIME=     0.11100000,STRANDID=   1
  0.19354781E+00  0.10000000E+00  0.67049656E+00  0.20209457E-11  0.10000000E+00    1    0
 VARIABLES= X1,X2,Y1,Y2,R,ID,RK
ZONE T="  114" 
SOLUTIONTIME=     0.11300000,STRANDID=   1
  0.19488394E+00  0.10000000E+00  0.66666685E+00  0.20403114E-11  0.10000000E+00    1    0
 VARIABLES= X1,X2,Y1,Y2,R,ID,RK
ZONE T="  116" 
SOLUTIONTIME=     0.11500000,STRANDID=   1
  0.19621728E+00  0.10000000E+00  0.66666685E+00  0.20272118E-11  0.10000000E+00    1    0
 VARIABLES= X1,X2,Y1,Y2,R,ID,RK
ZONE T="  118" 
SOLUTIONTIME=     0.11700000,STRANDID=   1
  0.19755061E+00  0.10000000E+00  0.66666685E+00  0.20141122E-11  0.10000000E+00    1    0
 VARIABLES= X1,X2,Y1,Y2,R,ID,RK
ZONE T="  120" 
SOLUTIONTIME=     0.11900000,STRANDID=   1
  0.19888394E+00  0.10000000E+00  0.66666685E+00  0.20010127E-11  0.10000000E+00    1    0
 VARIABLES= X1,X2,Y1,Y2,R,ID,RK
ZONE T="  122" 
SOLUTIONTIME=     0.12100000,STRANDID=   1
  0.20021728E+00  0.10000000E+00  0.66666685E+00  0.19879132E-11  0.10000000E+00    1    0
 VARIABLES= X1,X2,Y1,Y2,R,ID,RK
ZONE T="  124" 
SOLUTIONTIME=     0.12300000,STRANDID=   1
  0.20155061E+00  0.10000000E+00  0.66666685E+00  0.19748138E-11  0.10000000E+00    1    0
 VARIABLES= X1,X2,Y1,Y2,R,ID,RK
ZONE T="  126" 
SOLUTIONTIME=     0.12500000,STRANDID=   1
  0.20288395E+00  0.99999999E-01  0.66666685E+00  0.19617144E-11  0.10000000E+00    1    0
 VARIABLES= X1,X2,Y1,Y2,R,ID,RK
ZONE T="  128" 
SOLUTIONTIME=     0.12700000,STRANDID=   1
  0.20421728E+00  0.99999999E-01  0.66666685E+00  0.19486150E-11  0.10000000E+00    1    0
 VARIABLES= X1,X2,Y1,Y2,R,ID,RK
ZONE T="  130" 
SOLUTIONTIME=     0.12900000,STRANDID=   1
  0.20555061E+00  0.99999999E-01  0.66666685E+00  0.19355157E-11  0.10000000E+00    1    0
 VARIABLES= X1,X2,Y1,Y2,R,ID,RK
ZONE T="  132" 
SOLUTIONTIME=     0.13100000,STRANDID=   1
  0.20688395E+00  0.99999999E-01  0.66666685E+00  0.19224165E-11  0.10000000E+00    1    0
 VARIABLES= X1,X2,Y1,Y2,R,ID,RK
ZONE T="  134" 
SOLUTIONTIME=     0.13300000,STRANDID=   1
  0.20821728E+00  0.99999999E-01  0.66666685E+00  0.19093172E-11  0.10000000E+00    1    0
 VARIABLES= X1,X2,Y1,Y2,R,ID,RK
ZONE T="  136" 
SOLUTIONTIME=     0.13500000,STRANDID=   1
  0.20955061E+00  0.99999999E-01  0.66666685E+00  0.18962181E-11  0.10000000E+00    1    0
 VARIABLES= X1,X2,Y1,Y2,R,ID,RK
ZONE T="  138" 
SOLUTIONTIME=     0.13700000,STRANDID=   1
  0.21088395E+00  0.99999999E-01  0.66666685E+00  0.18831189E-11  0.10000000E+00    1    0
 VARIABLES= X1,X2,Y1,Y2,R,ID,RK
ZONE T="  140" 
SOLUTIONTIME=     0.13900000,STRANDID=   1
  0.21221728E+00  0.99999999E-01  0.66666685E+00  0.18700198E-11  0.10000000E+00    1    0
 VARIABLES= X1,X2,Y1,Y2,R,ID,RK
ZONE T="  142" 
SOLUTIONTIME=     0.14100000,STRANDID=   1
  0.21355062E+00  0.99999999E-01  0.66666685E+00  0.18569208E-11  0.10000000E+00    1    0
 VARIABLES= X1,X2,Y1,Y2,R,ID,RK
ZONE T="  144" 
SOLUTIONTIME=     0.14300000,STRANDID=   1
  0.21488395E+00  0.99999999E-01  0.66666685E+00  0.18438218E-11  0.10000000E+00    1    0
 VARIABLES= X1,X2,Y1,Y2,R,ID,RK
ZONE T="  146" 
SOLUTIONTIME=     0.14500000,STRANDID=   1
  0.21621728E+00  0.99999999E-01  0.66666685E+00  0.18307228E-11  0.10000000E+00    1    0
 VARIABLES= X1,X2,Y1,Y2,R,ID,RK
ZONE T="  148" 
SOLUTIONTIME=     0.14700000,STRANDID=   1
  0.21755062E+00  0.99999999E-01  0.66666685E+00  0.18176239E-11  0.10000000E+00    1    0
 VARIABLES= X1,X2,Y1,Y2,R,ID,RK
ZONE T="  150" 
SOLUTIONTIME=     0.14900000,STRANDID=   1
  0.21888395E+00  0.99999999E-01  0.66666685E+00  0.18045250E-11  0.10000000E+00    1    0
 VARIABLES= X1,X2,Y1,Y2,R,ID,RK
ZONE T="  152" 
SOLUTIONTIME=     0.15100000,STRANDID=   1
  0.22021728E+00  0.99999999E-01  0.66666685E+00  0.17914261E-11  0.10000000E+00    1    0
 VARIABLES= X1,X2,Y1,Y2,R,ID,RK
ZONE T="  154" 
SOLUTIONTIME=     0.15300000,STRANDID=   1
  0.22155062E+00  0.99999999E-01  0.66666685E+00  0.17783273E-11  0.10000000E+00    1    0
 VARIABLES= X1,X2,Y1,Y2,R,ID,RK
ZONE T="  156" 
SOLUTIONTIME=     0.15500000,STRANDID=   1
  0.22288395E+00  0.99999999E-01  0.66666685E+00  0.17652286E-11  0.10000000E+00    1    0
 VARIABLES= X1,X2,Y1,Y2,R,ID,RK
ZONE T="  158" 
SOLUTIONTIME=     0.15700000,STRANDID=   1
  0.22421729E+00  0.99999999E-01  0.66666685E+00  0.17521299E-11  0.10000000E+00    1    0
 VARIABLES= X1,X2,Y1,Y2,R,ID,RK
ZONE T="  160" 
SOLUTIONTIME=     0.15900000,STRANDID=   1
  0.22555062E+00  0.99999999E-01  0.66666685E+00  0.17390312E-11  0.10000000E+00    1    0
 VARIABLES= X1,X2,Y1,Y2,R,ID,RK
ZONE T="  162" 
SOLUTIONTIME=     0.16100000,STRANDID=   1
  0.22688395E+00  0.99999999E-01  0.66666685E+00  0.17259326E-11  0.10000000E+00    1    0
 VARIABLES= X1,X2,Y1,Y2,R,ID,RK
ZONE T="  164" 
SOLUTIONTIME=     0.16300000,STRANDID=   1
  0.22821729E+00  0.99999999E-01  0.66666685E+00  0.17128340E-11  0.10000000E+00    1    0
 VARIABLES= X1,X2,Y1,Y2,R,ID,RK
ZONE T="  166" 
SOLUTIONTIME=     0.16500000,STRANDID=   1
  0.22955062E+00  0.99999999E-01  0.66666685E+00  0.16997355E-11  0.10000000E+00    1    0
 VARIABLES= X1,X2,Y1,Y2,R,ID,RK
ZONE T="  168" 
SOLUTIONTIME=     0.16700000,STRANDID=   1
  0.23088395E+00  0.99999999E-01  0.66666685E+00  0.16866370E-11  0.10000000E+00    1    0
 VARIABLES= X1,X2,Y1,Y2,R,ID,RK
ZONE T="  170" 
SOLUTIONTIME=     0.16900000,STRANDID=   1
  0.23221729E+00  0.99999999E-01  0.66666685E+00  0.16735385E-11  0.10000000E+00    1    0
 VARIABLES= X1,X2,Y1,Y2,R,ID,RK
ZONE T="  172" 
SOLUTIONTIME=     0.17100000,STRANDID=   1
  0.23355062E+00  0.99999999E-01  0.66666685E+00  0.16604401E-11  0.10000000E+00    1    0
 VARIABLES= X1,X2,Y1,Y2,R,ID,RK
ZONE T="  174" 
SOLUTIONTIME=     0.17300000,STRANDID=   1
  0.23488395E+00  0.99999999E-01  0.66666685E+00  0.16473417E-11  0.10000000E+00    1    0
 VARIABLES= X1,X2,Y1,Y2,R,ID,RK
ZONE T="  176" 
SOLUTIONTIME=     0.17500000,STRANDID=   1
  0.23621729E+00  0.99999999E-01  0.66666685E+00  0.16342434E-11  0.10000000E+00    1    0
 VARIABLES= X1,X2,Y1,Y2,R,ID,RK
ZONE T="  178" 
SOLUTIONTIME=     0.17700000,STRANDID=   1
  0.23755062E+00  0.99999999E-01  0.66666685E+00  0.16211451E-11  0.10000000E+00    1    0
 VARIABLES= X1,X2,Y1,Y2,R,ID,RK
ZONE T="  180" 
SOLUTIONTIME=     0.17900000,STRANDID=   1
  0.23888396E+00  0.99999999E-01  0.66666685E+00  0.16080469E-11  0.10000000E+00    1    0
 VARIABLES= X1,X2,Y1,Y2,R,ID,RK
ZONE T="  182" 
SOLUTIONTIME=     0.18100000,STRANDID=   1
  0.24021729E+00  0.99999999E-01  0.66666685E+00  0.15949487E-11  0.10000000E+00    1    0
 VARIABLES= X1,X2,Y1,Y2,R,ID,RK
ZONE T="  184" 
SOLUTIONTIME=     0.18300000,STRANDID=   1
  0.24155062E+00  0.99999999E-01  0.66666685E+00  0.15818505E-11  0.10000000E+00    1    0
 VARIABLES= X1,X2,Y1,Y2,R,ID,RK
ZONE T="  186" 
SOLUTIONTIME=     0.18500000,STRANDID=   1
  0.24288396E+00  0.99999999E-01  0.66666685E+00  0.15687524E-11  0.10000000E+00    1    0
 VARIABLES= X1,X2,Y1,Y2,R,ID,RK
ZONE T="  188" 
SOLUTIONTIME=     0.18700000,STRANDID=   1
  0.24421729E+00  0.99999999E-01  0.66666685E+00  0.15556544E-11  0.10000000E+00    1    0
 VARIABLES= X1,X2,Y1,Y2,R,ID,RK
ZONE T="  190" 
SOLUTIONTIME=     0.18900000,STRANDID=   1
  0.24555062E+00  0.99999999E-01  0.66666685E+00  0.15425563E-11  0.10000000E+00    1    0
 VARIABLES= X1,X2,Y1,Y2,R,ID,RK
ZONE T="  192" 
SOLUTIONTIME=     0.19100000,STRANDID=   1
  0.24688396E+00  0.99999999E-01  0.66666685E+00  0.15294583E-11  0.10000000E+00    1    0
 VARIABLES= X1,X2,Y1,Y2,R,ID,RK
ZONE T="  194" 
SOLUTIONTIME=     0.19300000,STRANDID=   1
  0.24821729E+00  0.99999999E-01  0.66666685E+00  0.15163604E-11  0.10000000E+00    1    0
 VARIABLES= X1,X2,Y1,Y2,R,ID,RK
ZONE T="  196" 
SOLUTIONTIME=     0.19500000,STRANDID=   1
  0.24955063E+00  0.99999999E-01  0.66666685E+00  0.15032625E-11  0.10000000E+00    1    0
 VARIABLES= X1,X2,Y1,Y2,R,ID,RK
ZONE T="  198" 
SOLUTIONTIME=     0.19700000,STRANDID=   1
  0.25088396E+00  0.99999999E-01  0.66666685E+00  0.14901646E-11  0.10000000E+00    1    0
 VARIABLES= X1,X2,Y1,Y2,R,ID,RK
ZONE T="  200" 
SOLUTIONTIME=     0.19900000,STRANDID=   1
  0.25221729E+00  0.99999999E-01  0.66666685E+00  0.14770668E-11  0.10000000E+00    1    0
 VARIABLES= X1,X2,Y1,Y2,R,ID,RK
ZONE T="  202" 
SOLUTIONTIME=     0.20100000,STRANDID=   1
  0.25355063E+00  0.99999999E-01  0.66666685E+00  0.14639691E-11  0.10000000E+00    1    0
 VARIABLES= X1,X2,Y1,Y2,R,ID,RK
ZONE T="  204" 
SOLUTIONTIME=     0.20300000,STRANDID=   1
  0.25488396E+00  0.99999999E-01  0.66666685E+00  0.14508713E-11  0.10000000E+00    1    0
 VARIABLES= X1,X2,Y1,Y2,R,ID,RK
ZONE T="  206" 
SOLUTIONTIME=     0.20500000,STRANDID=   1
  0.25621729E+00  0.99999999E-01  0.66666685E+00  0.14377737E-11  0.10000000E+00    1    0
 VARIABLES= X1,X2,Y1,Y2,R,ID,RK
ZONE T="  208" 
SOLUTIONTIME=     0.20700000,STRANDID=   1
  0.25755063E+00  0.99999999E-01  0.66666685E+00  0.14246760E-11  0.10000000E+00    1    0
 VARIABLES= X1,X2,Y1,Y2,R,ID,RK
ZONE T="  210" 
SOLUTIONTIME=     0.20900000,STRANDID=   1
  0.25888396E+00  0.99999999E-01  0.66666685E+00  0.14115784E-11  0.10000000E+00    1    0
 VARIABLES= X1,X2,Y1,Y2,R,ID,RK
ZONE T="  212" 
SOLUTIONTIME=     0.21100000,STRANDID=   1
  0.26021729E+00  0.99999999E-01  0.66666685E+00  0.13984809E-11  0.10000000E+00    1    0
 VARIABLES= X1,X2,Y1,Y2,R,ID,RK
ZONE T="  214" 
SOLUTIONTIME=     0.21300000,STRANDID=   1
  0.26155063E+00  0.99999999E-01  0.66666685E+00  0.13853833E-11  0.10000000E+00    1    0
 VARIABLES= X1,X2,Y1,Y2,R,ID,RK
ZONE T="  216" 
SOLUTIONTIME=     0.21500000,STRANDID=   1
  0.26288396E+00  0.99999999E-01  0.66666685E+00  0.13722859E-11  0.10000000E+00    1    0
 VARIABLES= X1,X2,Y1,Y2,R,ID,RK
ZONE T="  218" 
SOLUTIONTIME=     0.21700000,STRANDID=   1
  0.26421730E+00  0.99999999E-01  0.66666685E+00  0.13591884E-11  0.10000000E+00    1    0
 VARIABLES= X1,X2,Y1,Y2,R,ID,RK
ZONE T="  220" 
SOLUTIONTIME=     0.21900000,STRANDID=   1
  0.26555063E+00  0.99999999E-01  0.66666685E+00  0.13460911E-11  0.10000000E+00    1    0
 VARIABLES= X1,X2,Y1,Y2,R,ID,RK
ZONE T="  222" 
SOLUTIONTIME=     0.22100000,STRANDID=   1
  0.26688396E+00  0.99999999E-01  0.66666685E+00  0.13329937E-11  0.10000000E+00    1    0
 VARIABLES= X1,X2,Y1,Y2,R,ID,RK
ZONE T="  224" 
SOLUTIONTIME=     0.22300000,STRANDID=   1
  0.26821730E+00  0.99999999E-01  0.66666685E+00  0.13198964E-11  0.10000000E+00    1    0
 VARIABLES= X1,X2,Y1,Y2,R,ID,RK
ZONE T="  226" 
SOLUTIONTIME=     0.22500000,STRANDID=   1
  0.26955063E+00  0.99999999E-01  0.66666685E+00  0.13067992E-11  0.10000000E+00    1    0
 VARIABLES= X1,X2,Y1,Y2,R,ID,RK
ZONE T="  228" 
SOLUTIONTIME=     0.22700000,STRANDID=   1
  0.27088396E+00  0.99999999E-01  0.66666685E+00  0.12937020E-11  0.10000000E+00    1    0
 VARIABLES= X1,X2,Y1,Y2,R,ID,RK
ZONE T="  230" 
SOLUTIONTIME=     0.22900000,STRANDID=   1
  0.27221730E+00  0.99999999E-01  0.66666685E+00  0.12806048E-11  0.10000000E+00    1    0
 VARIABLES= X1,X2,Y1,Y2,R,ID,RK
ZONE T="  232" 
SOLUTIONTIME=     0.23100000,STRANDID=   1
  0.27355063E+00  0.99999999E-01  0.66666685E+00  0.12675077E-11  0.10000000E+00    1    0
 VARIABLES= X1,X2,Y1,Y2,R,ID,RK
ZONE T="  234" 
SOLUTIONTIME=     0.23300000,STRANDID=   1
  0.27488397E+00  0.99999999E-01  0.66666685E+00  0.12544106E-11  0.10000000E+00    1    0
 VARIABLES= X1,X2,Y1,Y2,R,ID,RK
ZONE T="  236" 
SOLUTIONTIME=     0.23500000,STRANDID=   1
  0.27621730E+00  0.99999999E-01  0.66666685E+00  0.12413135E-11  0.10000000E+00    1    0
 VARIABLES= X1,X2,Y1,Y2,R,ID,RK
ZONE T="  238" 
SOLUTIONTIME=     0.23700000,STRANDID=   1
  0.27755063E+00  0.99999999E-01  0.66666685E+00  0.12282165E-11  0.10000000E+00    1    0
 VARIABLES= X1,X2,Y1,Y2,R,ID,RK
ZONE T="  240" 
SOLUTIONTIME=     0.23900000,STRANDID=   1
  0.27888397E+00  0.99999999E-01  0.66666685E+00  0.12151196E-11  0.10000000E+00    1    0
 VARIABLES= X1,X2,Y1,Y2,R,ID,RK
ZONE T="  242" 
SOLUTIONTIME=     0.24100000,STRANDID=   1
  0.28021730E+00  0.99999999E-01  0.66666685E+00  0.12020227E-11  0.10000000E+00    1    0
 VARIABLES= X1,X2,Y1,Y2,R,ID,RK
ZONE T="  244" 
SOLUTIONTIME=     0.24300000,STRANDID=   1
  0.28155063E+00  0.99999999E-01  0.66666685E+00  0.11889258E-11  0.10000000E+00    1    0
 VARIABLES= X1,X2,Y1,Y2,R,ID,RK
ZONE T="  246" 
SOLUTIONTIME=     0.24500000,STRANDID=   1
  0.28288397E+00  0.99999999E-01  0.66666685E+00  0.11758290E-11  0.10000000E+00    1    0
 VARIABLES= X1,X2,Y1,Y2,R,ID,RK
ZONE T="  248" 
SOLUTIONTIME=     0.24700000,STRANDID=   1
  0.28421730E+00  0.99999999E-01  0.66666685E+00  0.11627322E-11  0.10000000E+00    1    0
 VARIABLES= X1,X2,Y1,Y2,R,ID,RK
ZONE T="  250" 
SOLUTIONTIME=     0.24900000,STRANDID=   1
  0.28555064E+00  0.99999999E-01  0.66666685E+00  0.11496354E-11  0.10000000E+00    1    0
 VARIABLES= X1,X2,Y1,Y2,R,ID,RK
ZONE T="  252" 
SOLUTIONTIME=     0.25100000,STRANDID=   1
  0.28688397E+00  0.99999999E-01  0.66666685E+00  0.11365387E-11  0.10000000E+00    1    0
 VARIABLES= X1,X2,Y1,Y2,R,ID,RK
ZONE T="  254" 
SOLUTIONTIME=     0.25300000,STRANDID=   1
  0.28821730E+00  0.99999999E-01  0.66666685E+00  0.11234421E-11  0.10000000E+00    1    0
 VARIABLES= X1,X2,Y1,Y2,R,ID,RK
ZONE T="  256" 
SOLUTIONTIME=     0.25500000,STRANDID=   1
  0.28955064E+00  0.99999999E-01  0.66666685E+00  0.11103455E-11  0.10000000E+00    1    0
 VARIABLES= X1,X2,Y1,Y2,R,ID,RK
ZONE T="  258" 
SOLUTIONTIME=     0.25700000,STRANDID=   1
  0.29088397E+00  0.99999999E-01  0.66666685E+00  0.10972489E-11  0.10000000E+00    1    0
 VARIABLES= X1,X2,Y1,Y2,R,ID,RK
ZONE T="  260" 
SOLUTIONTIME=     0.25900000,STRANDID=   1
  0.29221730E+00  0.99999999E-01  0.66666685E+00  0.10841524E-11  0.10000000E+00    1    0
 VARIABLES= X1,X2,Y1,Y2,R,ID,RK
ZONE T="  262" 
SOLUTIONTIME=     0.26100000,STRANDID=   1
  0.29355064E+00  0.99999999E-01  0.66666685E+00  0.10710559E-11  0.10000000E+00    1    0
 VARIABLES= X1,X2,Y1,Y2,R,ID,RK
ZONE T="  264" 
SOLUTIONTIME=     0.26300000,STRANDID=   1
  0.29488397E+00  0.99999999E-01  0.66666685E+00  0.10579594E-11  0.10000000E+00    1    0
 VARIABLES= X1,X2,Y1,Y2,R,ID,RK
ZONE T="  266" 
SOLUTIONTIME=     0.26500000,STRANDID=   1
  0.29621730E+00  0.99999999E-01  0.66666685E+00  0.10448630E-11  0.10000000E+00    1    0
 VARIABLES= X1,X2,Y1,Y2,R,ID,RK
ZONE T="  268" 
SOLUTIONTIME=     0.26700000,STRANDID=   1
  0.29755064E+00  0.99999999E-01  0.66666685E+00  0.10317667E-11  0.10000000E+00    1    0
 VARIABLES= X1,X2,Y1,Y2,R,ID,RK
ZONE T="  270" 
SOLUTIONTIME=     0.26900000,STRANDID=   1
  0.29888397E+00  0.99999999E-01  0.66666685E+00  0.10186704E-11  0.10000000E+00    1    0
 VARIABLES= X1,X2,Y1,Y2,R,ID,RK
ZONE T="  272" 
SOLUTIONTIME=     0.27100000,STRANDID=   1
  0.30021731E+00  0.99999999E-01  0.66666685E+00  0.10055741E-11  0.10000000E+00    1    0
 VARIABLES= X1,X2,Y1,Y2,R,ID,RK
ZONE T="  274" 
SOLUTIONTIME=     0.27300000,STRANDID=   1
  0.30155064E+00  0.99999999E-01  0.66666685E+00  0.99247785E-12  0.10000000E+00    1    0
 VARIABLES= X1,X2,Y1,Y2,R,ID,RK
ZONE T="  276" 
SOLUTIONTIME=     0.27500000,STRANDID=   1
  0.30288397E+00  0.99999999E-01  0.66666685E+00  0.97938167E-12  0.10000000E+00    1    0
 VARIABLES= X1,X2,Y1,Y2,R,ID,RK
ZONE T="  278" 
SOLUTIONTIME=     0.27700000,STRANDID=   1
  0.30421731E+00  0.99999999E-01  0.66666685E+00  0.96628552E-12  0.10000000E+00    1    0
 VARIABLES= X1,X2,Y1,Y2,R,ID,RK
ZONE T="  280" 
SOLUTIONTIME=     0.27900000,STRANDID=   1
  0.30555064E+00  0.99999999E-01  0.66666685E+00  0.95318942E-12  0.10000000E+00    1    0
 VARIABLES= X1,X2,Y1,Y2,R,ID,RK
ZONE T="  282" 
SOLUTIONTIME=     0.28100000,STRANDID=   1
  0.30688397E+00  0.99999999E-01  0.66666685E+00  0.94009336E-12  0.10000000E+00    1    0
 VARIABLES= X1,X2,Y1,Y2,R,ID,RK
ZONE T="  284" 
SOLUTIONTIME=     0.28300000,STRANDID=   1
  0.30821731E+00  0.99999999E-01  0.66666685E+00  0.92699735E-12  0.10000000E+00    1    0
 VARIABLES= X1,X2,Y1,Y2,R,ID,RK
ZONE T="  286" 
SOLUTIONTIME=     0.28500000,STRANDID=   1
  0.30955064E+00  0.99999999E-01  0.66666685E+00  0.91390138E-12  0.10000000E+00    1    0
 VARIABLES= X1,X2,Y1,Y2,R,ID,RK
ZONE T="  288" 
SOLUTIONTIME=     0.28700000,STRANDID=   1
  0.31088398E+00  0.99999999E-01  0.66666685E+00  0.90080545E-12  0.10000000E+00    1    0
 VARIABLES= X1,X2,Y1,Y2,R,ID,RK
ZONE T="  290" 
SOLUTIONTIME=     0.28900000,STRANDID=   1
  0.31221731E+00  0.99999999E-01  0.66666685E+00  0.88770956E-12  0.10000000E+00    1    0
 VARIABLES= X1,X2,Y1,Y2,R,ID,RK
ZONE T="  292" 
SOLUTIONTIME=     0.29100000,STRANDID=   1
  0.31355064E+00  0.99999999E-01  0.66666685E+00  0.87461371E-12  0.10000000E+00    1    0
 VARIABLES= X1,X2,Y1,Y2,R,ID,RK
ZONE T="  294" 
SOLUTIONTIME=     0.29300000,STRANDID=   1
  0.31488398E+00  0.99999999E-01  0.66666685E+00  0.86151791E-12  0.10000000E+00    1    0
 VARIABLES= X1,X2,Y1,Y2,R,ID,RK
ZONE T="  296" 
SOLUTIONTIME=     0.29500000,STRANDID=   1
  0.31621731E+00  0.99999999E-01  0.66666685E+00  0.84842215E-12  0.10000000E+00    1    0
 VARIABLES= X1,X2,Y1,Y2,R,ID,RK
ZONE T="  298" 
SOLUTIONTIME=     0.29700000,STRANDID=   1
  0.31755064E+00  0.99999999E-01  0.66666685E+00  0.83532644E-12  0.10000000E+00    1    0
 VARIABLES= X1,X2,Y1,Y2,R,ID,RK
ZONE T="  300" 
SOLUTIONTIME=     0.29900000,STRANDID=   1
  0.31888398E+00  0.99999999E-01  0.66666685E+00  0.82223077E-12  0.10000000E+00    1    0
 VARIABLES= X1,X2,Y1,Y2,R,ID,RK
ZONE T="  302" 
SOLUTIONTIME=     0.30100000,STRANDID=   1
  0.32021731E+00  0.99999999E-01  0.66666685E+00  0.80913514E-12  0.10000000E+00    1    0
 VARIABLES= X1,X2,Y1,Y2,R,ID,RK
ZONE T="  304" 
SOLUTIONTIME=     0.30300000,STRANDID=   1
  0.32155064E+00  0.99999999E-01  0.66666685E+00  0.79603955E-12  0.10000000E+00    1    0
 VARIABLES= X1,X2,Y1,Y2,R,ID,RK
ZONE T="  306" 
SOLUTIONTIME=     0.30500000,STRANDID=   1
  0.32288398E+00  0.99999999E-01  0.66666685E+00  0.78294400E-12  0.10000000E+00    1    0
 VARIABLES= X1,X2,Y1,Y2,R,ID,RK
ZONE T="  308" 
SOLUTIONTIME=     0.30700000,STRANDID=   1
  0.32421731E+00  0.99999999E-01  0.66666685E+00  0.76984850E-12  0.10000000E+00    1    0
 VARIABLES= X1,X2,Y1,Y2,R,ID,RK
ZONE T="  310" 
SOLUTIONTIME=     0.30900000,STRANDID=   1
  0.32555065E+00  0.99999999E-01  0.66666685E+00  0.75675304E-12  0.10000000E+00    1    0
 VARIABLES= X1,X2,Y1,Y2,R,ID,RK
ZONE T="  312" 
SOLUTIONTIME=     0.31100000,STRANDID=   1
  0.32688398E+00  0.99999999E-01  0.66666685E+00  0.74365763E-12  0.10000000E+00    1    0
 VARIABLES= X1,X2,Y1,Y2,R,ID,RK
ZONE T="  314" 
SOLUTIONTIME=     0.31300000,STRANDID=   1
  0.32821731E+00  0.99999999E-01  0.66666685E+00  0.73056225E-12  0.10000000E+00    1    0
 VARIABLES= X1,X2,Y1,Y2,R,ID,RK
ZONE T="  316" 
SOLUTIONTIME=     0.31500000,STRANDID=   1
  0.32955065E+00  0.99999999E-01  0.66666685E+00  0.71746692E-12  0.10000000E+00    1    0
 VARIABLES= X1,X2,Y1,Y2,R,ID,RK
ZONE T="  318" 
SOLUTIONTIME=     0.31700000,STRANDID=   1
  0.33088398E+00  0.99999999E-01  0.66666685E+00  0.70437163E-12  0.10000000E+00    1    0
 VARIABLES= X1,X2,Y1,Y2,R,ID,RK
ZONE T="  320" 
SOLUTIONTIME=     0.31900000,STRANDID=   1
  0.33221731E+00  0.99999999E-01  0.66666685E+00  0.69127639E-12  0.10000000E+00    1    0
 VARIABLES= X1,X2,Y1,Y2,R,ID,RK
ZONE T="  322" 
SOLUTIONTIME=     0.32100000,STRANDID=   1
  0.33355065E+00  0.99999999E-01  0.66666685E+00  0.67818119E-12  0.10000000E+00    1    0
 VARIABLES= X1,X2,Y1,Y2,R,ID,RK
ZONE T="  324" 
SOLUTIONTIME=     0.32300000,STRANDID=   1
  0.33488398E+00  0.99999999E-01  0.66666685E+00  0.66508603E-12  0.10000000E+00    1    0
 VARIABLES= X1,X2,Y1,Y2,R,ID,RK
ZONE T="  326" 
SOLUTIONTIME=     0.32500000,STRANDID=   1
  0.33621732E+00  0.99999999E-01  0.66666685E+00  0.65199091E-12  0.10000000E+00    1    0
 VARIABLES= X1,X2,Y1,Y2,R,ID,RK
ZONE T="  328" 
SOLUTIONTIME=     0.32700000,STRANDID=   1
  0.33755065E+00  0.99999999E-01  0.66666685E+00  0.63889584E-12  0.10000000E+00    1    0
 VARIABLES= X1,X2,Y1,Y2,R,ID,RK
ZONE T="  330" 
SOLUTIONTIME=     0.32900000,STRANDID=   1