 VARIABLES= X1,X2,Y1,Y2,R,ID,RK
ZONE T="    2" 
SOLUTIONTIME=     0.00050000,STRANDID=   1
  0.50015816E+00  0.49998793E+00  0.15815800E+00 -0.14524650E-01  0.20000000E-01    1    0
 VARIABLES= X1,X2,Y1,Y2,R,ID,RK
ZONE T="    4" 
SOLUTIONTIME=     0.00150000,STRANDID=   1
  0.50031632E+00  0.49996605E+00  0.15815800E+00 -0.24331301E-01  0.20000000E-01    1    0
 VARIABLES= X1,X2,Y1,Y2,R,ID,RK
ZONE T="    6" 
SOLUTIONTIME=     0.00250000,STRANDID=   1
  0.50047447E+00  0.49993436E+00  0.15815800E+00 -0.34137951E-01  0.20000000E-01    1    0
 VARIABLES= X1,X2,Y1,Y2,R,ID,RK
ZONE T="    8" 
SOLUTIONTIME=     0.00350000,STRANDID=   1
  0.50063263E+00  0.49989287E+00  0.15815800E+00 -0.43944602E-01  0.20000000E-01    1    0
 VARIABLES= X1,X2,Y1,Y2,R,ID,RK
ZONE T="   10" 
SOLUTIONTIME=     0.00450000,STRANDID=   1
  0.50079079E+00  0.49984157E+00  0.15815800E+00 -0.53751252E-01  0.20000000E-01    1    0
 VARIABLES= X1,X2,Y1,Y2,R,ID,RK
ZONE T="   12" 
SOLUTIONTIME=     0.00550000,STRANDID=   1
  0.50094895E+00  0.49978046E+00  0.15815800E+00 -0.63557903E-01  0.20000000E-01    1    0
 VARIABLES= X1,X2,Y1,Y2,R,ID,RK
ZONE T="   14" 
SOLUTIONTIME=     0.00650000,STRANDID=   1
  0.50110711E+00  0.49970955E+00  0.15815800E+00 -0.73364553E-01  0.20000000E-01    1    0
 VARIABLES= X1,X2,Y1,Y2,R,ID,RK
ZONE T="   16" 
SOLUTIONTIME=     0.00750000,STRANDID=   1
  0.50126526E+00  0.49962883E+00  0.15815800E+00 -0.83171204E-01  0.20000000E-01    1    0
 VARIABLES= X1,X2,Y1,Y2,R,ID,RK
ZONE T="   18" 
SOLUTIONTIME=     0.00850000,STRANDID=   1
  0.50142342E+00  0.49953830E+00  0.15815800E+00 -0.92977854E-01  0.20000000E-01    1    0
 VARIABLES= X1,X2,Y1,Y2,R,ID,RK
ZONE T="   20" 
SOLUTIONTIME=     0.00950000,STRANDID=   1
  0.50158158E+00  0.49943797E+00  0.15815800E+00 -0.10278450E+00  0.20000000E-01    1    0
 VARIABLES= X1,X2,Y1,Y2,R,ID,RK
ZONE T="   22" 
SOLUTIONTIME=     0.01050000,STRANDID=   1
  0.50173974E+00  0.49932783E+00  0.15815800E+00 -0.11259116E+00  0.20000000E-01    1    0
 VARIABLES= X1,X2,Y1,Y2,R,ID,RK
ZONE T="   24" 
SOLUTIONTIME=     0.01150000,STRANDID=   1
  0.50189790E+00  0.49920789E+00  0.15815800E+00 -0.12239781E+00  0.20000000E-01    1    0
 VARIABLES= X1,X2,Y1,Y2,R,ID,RK
ZONE T="   26" 
SOLUTIONTIME=     0.01250000,STRANDID=   1
  0.50205605E+00  0.49907813E+00  0.15815800E+00 -0.13220446E+00  0.20000000E-01    1    0
 VARIABLES= X1,X2,Y1,Y2,R,ID,RK
ZONE T="   28" 
SOLUTIONTIME=     0.01350000,STRANDID=   1
  0.50221421E+00  0.49893857E+00  0.15815800E+00 -0.14201111E+00  0.20000000E-01    1    0
 VARIABLES= X1,X2,Y1,Y2,R,ID,RK
ZONE T="   30" 
SOLUTIONTIME=     0.01450000,STRANDID=   1
  0.50237237E+00  0.49878921E+00  0.15815800E+00 -0.15181776E+00  0.20000000E-01    1    0
 VARIABLES= X1,X2,Y1,Y2,R,ID,RK
ZONE T="   32" 
SOLUTIONTIME=     0.01550000,STRANDID=   1
  0.50253053E+00  0.49863003E+00  0.15815800E+00 -0.16162441E+00  0.20000000E-01    1    0
 VARIABLES= X1,X2,Y1,Y2,R,ID,RK
ZONE T="   34" 
SOLUTIONTIME=     0.01650000,STRANDID=   1
  0.50268869E+00  0.49846105E+00  0.15815800E+00 -0.17143106E+00  0.20000000E-01    1    0
 VARIABLES= X1,X2,Y1,Y2,R,ID,RK
ZONE T="   36" 
SOLUTIONTIME=     0.01750000,STRANDID=   1
  0.50284684E+00  0.49828227E+00  0.15815800E+00 -0.18123771E+00  0.20000000E-01    1    0
 VARIABLES= X1,X2,Y1,Y2,R,ID,RK
ZONE T="   38" 
SOLUTIONTIME=     0.01850000,STRANDID=   1
  0.50300500E+00  0.49809368E+00  0.15815800E+00 -0.19104436E+00  0.20000000E-01    1    0
 VARIABLES= X1,X2,Y1,Y2,R,ID,RK
ZONE T="   40" 
SOLUTIONTIME=     0.01950000,STRANDID=   1
  0.50316316E+00  0.49789528E+00  0.15815800E+00 -0.20085101E+00  0.20000000E-01    1    0
 VARIABLES= X1,X2,Y1,Y2,R,ID,RK
ZONE T="   42" 
SOLUTIONTIME=     0.02050000,STRANDID=   1
  0.50332132E+00  0.49768707E+00  0.15815800E+00 -0.21065766E+00  0.20000000E-01    1    0
 VARIABLES= X1,X2,Y1,Y2,R,ID,RK
ZONE T="   44" 
SOLUTIONTIME=     0.02150000,STRANDID=   1
  0.50347948E+00  0.49746906E+00  0.15815800E+00 -0.22046431E+00  0.20000000E-01    1    0
 VARIABLES= X1,X2,Y1,Y2,R,ID,RK
ZONE T="   46" 
SOLUTIONTIME=     0.02250000,STRANDID=   1
  0.50363763E+00  0.49724124E+00  0.15815800E+00 -0.23027096E+00  0.20000000E-01    1    0
 VARIABLES= X1,X2,Y1,Y2,R,ID,RK
ZONE T="   48" 
SOLUTIONTIME=     0.02350000,STRANDID=   1
  0.50379579E+00  0.49700361E+00  0.15815800E+00 -0.24007761E+00  0.20000000E-01    1    0
 VARIABLES= X1,X2,Y1,Y2,R,ID,RK
ZONE T="   50" 
SOLUTIONTIME=     0.02450000,STRANDID=   1
  0.50395395E+00  0.49675618E+00  0.15815800E+00 -0.24988426E+00  0.20000000E-01    1    0
 VARIABLES= X1,X2,Y1,Y2,R,ID,RK
ZONE T="   52" 
SOLUTIONTIME=     0.02550000,STRANDID=   1
  0.50411211E+00  0.49649894E+00  0.15815800E+00 -0.25969091E+00  0.20000000E-01    1    0
 VARIABLES= X1,X2,Y1,Y2,R,ID,RK
ZONE T="   54" 
SOLUTIONTIME=     0.02650000,STRANDID=   1
  0.50427027E+00  0.49623189E+00  0.15815800E+00 -0.26949756E+00  0.20000000E-01    1    0
 VARIABLES= X1,X2,Y1,Y2,R,ID,RK
ZONE T="   56" 
SOLUTIONTIME=     0.02750000,STRANDID=   1
  0.50442842E+00  0.49595504E+00  0.15815800E+00 -0.27930421E+00  0.20000000E-01    1    0
 VARIABLES= X1,X2,Y1,Y2,R,ID,RK
ZONE T="   58" 
SOLUTIONTIME=     0.02850000,STRANDID=   1
  0.50458658E+00  0.49566838E+00  0.15815800E+00 -0.28911086E+00  0.20000000E-01    1    0
 VARIABLES= X1,X2,Y1,Y2,R,ID,RK
ZONE T="   60" 
SOLUTIONTIME=     0.02950000,STRANDID=   1
  0.50474474E+00  0.49537192E+00  0.15815800E+00 -0.29891751E+00  0.20000000E-01    1    0
 VARIABLES= X1,X2,Y1,Y2,R,ID,RK
ZONE T="   62" 
SOLUTIONTIME=     0.03050000,STRANDID=   1
  0.50490290E+00  0.49506564E+00  0.15815800E+00 -0.30872416E+00  0.20000000E-01    1    0
 VARIABLES= X1,X2,Y1,Y2,R,ID,RK
ZONE T="   64" 
SOLUTIONTIME=     0.03150000,STRANDID=   1
  0.50506106E+00  0.49474957E+00  0.15815800E+00 -0.31853081E+00  0.20000000E-01    1    0
 VARIABLES= X1,X2,Y1,Y2,R,ID,RK
ZONE T="   66" 
SOLUTIONTIME=     0.03250000,STRANDID=   1
  0.50521921E+00  0.49442368E+00  0.15815800E+00 -0.32833747E+00  0.20000000E-01    1    0
 VARIABLES= X1,X2,Y1,Y2,R,ID,RK
ZONE T="   68" 
SOLUTIONTIME=     0.03350000,STRANDID=   1
  0.50537737E+00  0.49408799E+00  0.15815800E+00 -0.33814412E+00  0.20000000E-01    1    0
 VARIABLES= X1,X2,Y1,Y2,R,ID,RK
ZONE T="   70" 
SOLUTIONTIME=     0.03450000,STRANDID=   1
  0.50553553E+00  0.49374249E+00  0.15815800E+00 -0.34795077E+00  0.20000000E-01    1    0
 VARIABLES= X1,X2,Y1,Y2,R,ID,RK
ZONE T="   72" 
SOLUTIONTIME=     0.03550000,STRANDID=   1
  0.50569369E+00  0.49338718E+00  0.15815800E+00 -0.35775742E+00  0.20000000E-01    1    0
 VARIABLES= X1,X2,Y1,Y2,R,ID,RK
ZONE T="   74" 
SOLUTIONTIME=     0.03650000,STRANDID=   1
  0.50585185E+00  0.49302207E+00  0.15815800E+00 -0.36756407E+00  0.20000000E-01    1    0
 VARIABLES= X1,X2,Y1,Y2,R,ID,RK
ZONE T="   76" 
SOLUTIONTIME=     0.03750000,STRANDID=   1
  0.50601000E+00  0.49264715E+00  0.15815800E+00 -0.37737072E+00  0.20000000E-01    1    0
 VARIABLES= X1,X2,Y1,Y2,R,ID,RK
ZONE T="   78" 
SOLUTIONTIME=     0.03850000,STRANDID=   1
  0.50616816E+00  0.49226243E+00  0.15815800E+00 -0.38717737E+00  0.20000000E-01    1    0
 VARIABLES= X1,X2,Y1,Y2,R,ID,RK
ZONE T="   80" 
SOLUTIONTIME=     0.03950000,STRANDID=   1
  0.50632632E+00  0.49186789E+00  0.15815800E+00 -0.39698402E+00  0.20000000E-01    1    0
 VARIABLES= X1,X2,Y1,Y2,R,ID,RK
ZONE T="   82" 
SOLUTIONTIME=     0.04050000,STRANDID=   1
  0.50648448E+00  0.49146355E+00  0.15815800E+00 -0.40679067E+00  0.20000000E-01    1    0
 VARIABLES= X1,X2,Y1,Y2,R,ID,RK
ZONE T="   84" 
SOLUTIONTIME=     0.04150000,STRANDID=   1
  0.50664264E+00  0.49104941E+00  0.15815800E+00 -0.41659732E+00  0.20000000E-01    1    0
 VARIABLES= X1,X2,Y1,Y2,R,ID,RK
ZONE T="   86" 
SOLUTIONTIME=     0.04250000,STRANDID=   1
  0.50680079E+00  0.49062546E+00  0.15815800E+00 -0.42640397E+00  0.20000000E-01    1    0
 VARIABLES= X1,X2,Y1,Y2,R,ID,RK
ZONE T="   88" 
SOLUTIONTIME=     0.04350000,STRANDID=   1
  0.50695895E+00  0.49019170E+00  0.15815800E+00 -0.43621062E+00  0.20000000E-01    1    0
 VARIABLES= X1,X2,Y1,Y2,R,ID,RK
ZONE T="   90" 
SOLUTIONTIME=     0.04450000,STRANDID=   1
  0.50711711E+00  0.48974813E+00  0.15815800E+00 -0.44601727E+00  0.20000000E-01    1    0
 VARIABLES= X1,X2,Y1,Y2,R,ID,RK
ZONE T="   92" 
SOLUTIONTIME=     0.04550000,STRANDID=   1
  0.50727527E+00  0.48929476E+00  0.15815800E+00 -0.45582392E+00  0.20000000E-01    1    0
 VARIABLES= X1,X2,Y1,Y2,R,ID,RK
ZONE T="   94" 
SOLUTIONTIME=     0.04650000,STRANDID=   1
  0.50743343E+00  0.48883158E+00  0.15815800E+00 -0.46563057E+00  0.20000000E-01    1    0
 VARIABLES= X1,X2,Y1,Y2,R,ID,RK
ZONE T="   96" 
SOLUTIONTIME=     0.04750000,STRANDID=   1
  0.50759158E+00  0.48835859E+00  0.15815800E+00 -0.47543722E+00  0.20000000E-01    1    0
 VARIABLES= X1,X2,Y1,Y2,R,ID,RK
ZONE T="   98" 
SOLUTIONTIME=     0.04850000,STRANDID=   1
  0.50774974E+00  0.48787580E+00  0.15815800E+00 -0.48524387E+00  0.20000000E-01    1    0
 VARIABLES= X1,X2,Y1,Y2,R,ID,RK
ZONE T="  100" 
SOLUTIONTIME=     0.04950000,STRANDID=   1
  0.50790790E+00  0.48738320E+00  0.15815800E+00 -0.49505052E+00  0.20000000E-01    1    0
 VARIABLES= X1,X2,Y1,Y2,R,ID,RK
ZONE T="  102" 
SOLUTIONTIME=     0.05050000,STRANDID=   1
  0.50806606E+00  0.48688080E+00  0.15815800E+00 -0.50485717E+00  0.20000000E-01    1    0
 VARIABLES= X1,X2,Y1,Y2,R,ID,RK
ZONE T="  104" 
SOLUTIONTIME=     0.05150000,STRANDID=   1
  0.50822422E+00  0.48636859E+00  0.15815800E+00 -0.51466382E+00  0.20000000E-01    1    0
 VARIABLES= X1,X2,Y1,Y2,R,ID,RK
ZONE T="  106" 
SOLUTIONTIME=     0.05250000,STRANDID=   1
  0.50838237E+00  0.48584657E+00  0.15815800E+00 -0.52447047E+00  0.20000000E-01    1    0
 VARIABLES= X1,X2,Y1,Y2,R,ID,RK
ZONE T="  108" 
SOLUTIONTIME=     0.05350000,STRANDID=   1
  0.50854053E+00  0.48531474E+00  0.15815800E+00 -0.53427713E+00  0.20000000E-01    1    0
 VARIABLES= X1,X2,Y1,Y2,R,ID,RK
ZONE T="  110" 
SOLUTIONTIME=     0.05450000,STRANDID=   1
  0.50869869E+00  0.48477311E+00  0.15815800E+00 -0.54408378E+00  0.20000000E-01    1    0
 VARIABLES= X1,X2,Y1,Y2,R,ID,RK
ZONE T="  112" 
SOLUTIONTIME=     0.05550000,STRANDID=   1
  0.50885685E+00  0.48422167E+00  0.15815800E+00 -0.55389043E+00  0.20000000E-01    1    0
 VARIABLES= X1,X2,Y1,Y2,R,ID,RK
ZONE T="  114" 
SOLUTIONTIME=     0.05650000,STRANDID=   1
  0.50901501E+00  0.48366042E+00  0.15815800E+00 -0.56369708E+00  0.20000000E-01    1    0
 VARIABLES= X1,X2,Y1,Y2,R,ID,RK
ZONE T="  116" 
SOLUTIONTIME=     0.05750000,STRANDID=   1
  0.50917316E+00  0.48308937E+00  0.15815800E+00 -0.57350373E+00  0.20000000E-01    1    0
 VARIABLES= X1,X2,Y1,Y2,R,ID,RK
ZONE T="  118" 
SOLUTIONTIME=     0.05850000,STRANDID=   1
  0.50933132E+00  0.48250851E+00  0.15815800E+00 -0.58331038E+00  0.20000000E-01    1    0
 VARIABLES= X1,X2,Y1,Y2,R,ID,RK
ZONE T="  120" 
SOLUTIONTIME=     0.05950000,STRANDID=   1
  0.50948948E+00  0.48191785E+00  0.15815800E+00 -0.59311703E+00  0.20000000E-01    1    0
 VARIABLES= X1,X2,Y1,Y2,R,ID,RK
ZONE T="  122" 
SOLUTIONTIME=     0.06050000,STRANDID=   1
  0.50964764E+00  0.48131738E+00  0.15815800E+00 -0.60292368E+00  0.20000000E-01    1    0
 VARIABLES= X1,X2,Y1,Y2,R,ID,RK
ZONE T="  124" 
SOLUTIONTIME=     0.06150000,STRANDID=   1
  0.50980580E+00  0.48070710E+00  0.15815800E+00 -0.61273033E+00  0.20000000E-01    1    0
 VARIABLES= X1,X2,Y1,Y2,R,ID,RK
ZONE T="  126" 
SOLUTIONTIME=     0.06250000,STRANDID=   1
  0.50996395E+00  0.48008701E+00  0.15815800E+00 -0.62253698E+00  0.20000000E-01    1    0
 VARIABLES= X1,X2,Y1,Y2,R,ID,RK
ZONE T="  128" 
SOLUTIONTIME=     0.06350000,STRANDID=   1
  0.51012211E+00  0.47945712E+00  0.15815800E+00 -0.63234363E+00  0.20000000E-01    1    0
 VARIABLES= X1,X2,Y1,Y2,R,ID,RK
ZONE T="  130" 
SOLUTIONTIME=     0.06450000,STRANDID=   1
  0.51028027E+00  0.47881742E+00  0.15815800E+00 -0.64215028E+00  0.20000000E-01    1    0
 VARIABLES= X1,X2,Y1,Y2,R,ID,RK
ZONE T="  132" 
SOLUTIONTIME=     0.06550000,STRANDID=   1
  0.51043843E+00  0.47816792E+00  0.15815800E+00 -0.65195693E+00  0.20000000E-01    1    0
 VARIABLES= X1,X2,Y1,Y2,R,ID,RK
ZONE T="  134" 
SOLUTIONTIME=     0.06650000,STRANDID=   1
  0.51059659E+00  0.47750860E+00  0.15815800E+00 -0.66176358E+00  0.20000000E-01    1    0
 VARIABLES= X1,X2,Y1,Y2,R,ID,RK
ZONE T="  136" 
SOLUTIONTIME=     0.06750000,STRANDID=   1
  0.51075474E+00  0.47683949E+00  0.15815800E+00 -0.67157023E+00  0.20000000E-01    1    0
 VARIABLES= X1,X2,Y1,Y2,R,ID,RK
ZONE T="  138" 
SOLUTIONTIME=     0.06850000,STRANDID=   1
  0.51091290E+00  0.47616056E+00  0.15815800E+00 -0.68137688E+00  0.20000000E-01    1    0
 VARIABLES= X1,X2,Y1,Y2,R,ID,RK
ZONE T="  140" 
SOLUTIONTIME=     0.06950000,STRANDID=   1
  0.51107106E+00  0.47547183E+00  0.15815800E+00 -0.69118353E+00  0.20000000E-01    1    0
 VARIABLES= X1,X2,Y1,Y2,R,ID,RK
ZONE T="  142" 
SOLUTIONTIME=     0.07050000,STRANDID=   1
  0.51122922E+00  0.47477329E+00  0.15815800E+00 -0.70099018E+00  0.20000000E-01    1    0
 VARIABLES= X1,X2,Y1,Y2,R,ID,RK
ZONE T="  144" 
SOLUTIONTIME=     0.07150000,STRANDID=   1
  0.51138738E+00  0.47406495E+00  0.15815800E+00 -0.71079683E+00  0.20000000E-01    1    0
 VARIABLES= X1,X2,Y1,Y2,R,ID,RK
ZONE T="  146" 
SOLUTIONTIME=     0.07250000,STRANDID=   1
  0.51154553E+00  0.47334679E+00  0.15815800E+00 -0.72060348E+00  0.20000000E-01    1    0
 VARIABLES= X1,X2,Y1,Y2,R,ID,RK
ZONE T="  148" 
SOLUTIONTIME=     0.07350000,STRANDID=   1
  0.51170369E+00  0.47261883E+00  0.15815800E+00 -0.73041013E+00  0.20000000E-01    1    0
 VARIABLES= X1,X2,Y1,Y2,R,ID,RK
ZONE T="  150" 
SOLUTIONTIME=     0.07450000,STRANDID=   1
  0.51186185E+00  0.47188107E+00  0.15815800E+00 -0.74021678E+00  0.20000000E-01    1    0
 VARIABLES= X1,X2,Y1,Y2,R,ID,RK
ZONE T="  152" 
SOLUTIONTIME=     0.07550000,STRANDID=   1
  0.51202001E+00  0.47113350E+00  0.15815800E+00 -0.75002344E+00  0.20000000E-01    1    0
 VARIABLES= X1,X2,Y1,Y2,R,ID,RK
ZONE T="  154" 
SOLUTIONTIME=     0.07650000,STRANDID=   1
  0.51217817E+00  0.47037612E+00  0.15815800E+00 -0.75983009E+00  0.20000000E-01    1    0
 VARIABLES= X1,X2,Y1,Y2,R,ID,RK
ZONE T="  156" 
SOLUTIONTIME=     0.07750000,STRANDID=   1
  0.51233632E+00  0.46960893E+00  0.15815800E+00 -0.76963674E+00  0.20000000E-01    1    0
 VARIABLES= X1,X2,Y1,Y2,R,ID,RK
ZONE T="  158" 
SOLUTIONTIME=     0.07850000,STRANDID=   1
  0.51249448E+00  0.46883194E+00  0.15815800E+00 -0.77944339E+00  0.20000000E-01    1    0
 VARIABLES= X1,X2,Y1,Y2,R,ID,RK
ZONE T="  160" 
SOLUTIONTIME=     0.07950000,STRANDID=   1
  0.51265264E+00  0.46804514E+00  0.15815800E+00 -0.78925004E+00  0.20000000E-01    1    0
 VARIABLES= X1,X2,Y1,Y2,R,ID,RK
ZONE T="  162" 
SOLUTIONTIME=     0.08050000,STRANDID=   1
  0.51281080E+00  0.46724854E+00  0.15815800E+00 -0.79905669E+00  0.20000000E-01    1    0
 VARIABLES= X1,X2,Y1,Y2,R,ID,RK
ZONE T="  164" 
SOLUTIONTIME=     0.08150000,STRANDID=   1
  0.51296896E+00  0.46644213E+00  0.15815800E+00 -0.80886334E+00  0.20000000E-01    1    0
 VARIABLES= X1,X2,Y1,Y2,R,ID,RK
ZONE T="  166" 
SOLUTIONTIME=     0.08250000,STRANDID=   1
  0.51312711E+00  0.46562591E+00  0.15815800E+00 -0.81866999E+00  0.20000000E-01    1    0
 VARIABLES= X1,X2,Y1,Y2,R,ID,RK
ZONE T="  168" 
SOLUTIONTIME=     0.08350000,STRANDID=   1
  0.51328527E+00  0.46479988E+00  0.15815800E+00 -0.82847664E+00  0.20000000E-01    1    0
 VARIABLES= X1,X2,Y1,Y2,R,ID,RK
ZONE T="  170" 
SOLUTIONTIME=     0.08450000,STRANDID=   1
  0.51344343E+00  0.46396405E+00  0.15815800E+00 -0.83828329E+00  0.20000000E-01    1    0
 VARIABLES= X1,X2,Y1,Y2,R,ID,RK
ZONE T="  172" 
SOLUTIONTIME=     0.08550000,STRANDID=   1
  0.51360159E+00  0.46311841E+00  0.15815800E+00 -0.84808994E+00  0.20000000E-01    1    0
 VARIABLES= X1,X2,Y1,Y2,R,ID,RK
ZONE T="  174" 
SOLUTIONTIME=     0.08650000,STRANDID=   1
  0.51375975E+00  0.46226297E+00  0.15815800E+00 -0.85789659E+00  0.20000000E-01    1    0
 VARIABLES= X1,X2,Y1,Y2,R,ID,RK
ZONE T="  176" 
SOLUTIONTIME=     0.08750000,STRANDID=   1
  0.51391790E+00  0.46139772E+00  0.15815800E+00 -0.86770324E+00  0.20000000E-01    1    0
 VARIABLES= X1,X2,Y1,Y2,R,ID,RK
ZONE T="  178" 
SOLUTIONTIME=     0.08850000,STRANDID=   1
  0.51407606E+00  0.46052266E+00  0.15815800E+00 -0.87750989E+00  0.20000000E-01    1    0
 VARIABLES= X1,X2,Y1,Y2,R,ID,RK
ZONE T="  180" 
SOLUTIONTIME=     0.08950000,STRANDID=   1
  0.51423422E+00  0.45963779E+00  0.15815800E+00 -0.88731654E+00  0.20000000E-01    1    0
 VARIABLES= X1,X2,Y1,Y2,R,ID,RK
ZONE T="  182" 
SOLUTIONTIME=     0.09050000,STRANDID=   1
  0.51439238E+00  0.45874312E+00  0.15815800E+00 -0.89712319E+00  0.20000000E-01    1    0
 VARIABLES= X1,X2,Y1,Y2,R,ID,RK
ZONE T="  184" 
SOLUTIONTIME=     0.09150000,STRANDID=   1
  0.51455054E+00  0.45783864E+00  0.15815800E+00 -0.90692984E+00  0.20000000E-01    1    0
 VARIABLES= X1,X2,Y1,Y2,R,ID,RK
ZONE T="  186" 
SOLUTIONTIME=     0.09250000,STRANDID=   1
  0.51470869E+00  0.45692436E+00  0.15815800E+00 -0.91673649E+00  0.20000000E-01    1    0
 VARIABLES= X1,X2,Y1,Y2,R,ID,RK
ZONE T="  188" 
SOLUTIONTIME=     0.09350000,STRANDID=   1
  0.51486685E+00  0.45600027E+00  0.15815800E+00 -0.92654314E+00  0.20000000E-01    1    0
 VARIABLES= X1,X2,Y1,Y2,R,ID,RK
ZONE T="  190" 
SOLUTIONTIME=     0.09450000,STRANDID=   1
  0.51502501E+00  0.45506637E+00  0.15815800E+00 -0.93634979E+00  0.20000000E-01    1    0
 VARIABLES= X1,X2,Y1,Y2,R,ID,RK
ZONE T="  192" 
SOLUTIONTIME=     0.09550000,STRANDID=   1
  0.51518317E+00  0.45412266E+00  0.15815800E+00 -0.94615644E+00  0.20000000E-01    1    0
 VARIABLES= X1,X2,Y1,Y2,R,ID,RK
ZONE T="  194" 
SOLUTIONTIME=     0.09650000,STRANDID=   1
  0.51534133E+00  0.45316915E+00  0.15815800E+00 -0.95596310E+00  0.20000000E-01    1    0
 VARIABLES= X1,X2,Y1,Y2,R,ID,RK
ZONE T="  196" 
SOLUTIONTIME=     0.09750000,STRANDID=   1
  0.51549948E+00  0.45220584E+00  0.15815800E+00 -0.96576975E+00  0.20000000E-01    1    0
 VARIABLES= X1,X2,Y1,Y2,R,ID,RK
ZONE T="  198" 
SOLUTIONTIME=     0.09850000,STRANDID=   1
  0.51565764E+00  0.45123271E+00  0.15815800E+00 -0.97557640E+00  0.20000000E-01    1    0
 VARIABLES= X1,X2,Y1,Y2,R,ID,RK
ZONE T="  200" 
SOLUTIONTIME=     0.09950000,STRANDID=   1
  0.51581580E+00  0.45024978E+00  0.15815800E+00 -0.98538305E+00  0.20000000E-01    1    0
 VARIABLES= X1,X2,Y1,Y2,R,ID,RK
ZONE T="  202" 
SOLUTIONTIME=     0.10050000,STRANDID=   1
  0.51597396E+00  0.44925704E+00  0.15815800E+00 -0.99518970E+00  0.20000000E-01    1    0
 VARIABLES= X1,X2,Y1,Y2,R,ID,RK
ZONE T="  204" 
SOLUTIONTIME=     0.10150000,STRANDID=   1
  0.51613212E+00  0.44825450E+00  0.15815800E+00 -0.10049963E+01  0.20000000E-01    1    0
 VARIABLES= X1,X2,Y1,Y2,R,ID,RK
ZONE T="  206" 
SOLUTIONTIME=     0.10250000,STRANDID=   1
  0.51629027E+00  0.44724214E+00  0.15815800E+00 -0.10148030E+01  0.20000000E-01    1    0
 VARIABLES= X1,X2,Y1,Y2,R,ID,RK
ZONE T="  208" 
SOLUTIONTIME=     0.10350000,STRANDID=   1
  0.51644843E+00  0.44621999E+00  0.15815800E+00 -0.10246096E+01  0.20000000E-01    1    0
 VARIABLES= X1,X2,Y1,Y2,R,ID,RK
ZONE T="  210" 
SOLUTIONTIME=     0.10450000,STRANDID=   1
  0.51660659E+00  0.44518802E+00  0.15815800E+00 -0.10344163E+01  0.20000000E-01    1    0
 VARIABLES= X1,X2,Y1,Y2,R,ID,RK
ZONE T="  212" 
SOLUTIONTIME=     0.10550001,STRANDID=   1
  0.51676475E+00  0.44414625E+00  0.15815800E+00 -0.10442229E+01  0.20000000E-01    1    0
 VARIABLES= X1,X2,Y1,Y2,R,ID,RK
ZONE T="  214" 
SOLUTIONTIME=     0.10650001,STRANDID=   1
  0.51692291E+00  0.44309467E+00  0.15815800E+00 -0.10540296E+01  0.20000000E-01    1    0
 VARIABLES= X1,X2,Y1,Y2,R,ID,RK
ZONE T="  216" 
SOLUTIONTIME=     0.10750001,STRANDID=   1
  0.51708106E+00  0.44203329E+00  0.15815800E+00 -0.10638363E+01  0.20000000E-01    1    0
 VARIABLES= X1,X2,Y1,Y2,R,ID,RK
ZONE T="  218" 
SOLUTIONTIME=     0.10850001,STRANDID=   1
  0.51723922E+00  0.44096210E+00  0.15815800E+00 -0.10736429E+01  0.20000000E-01    1    0
 VARIABLES= X1,X2,Y1,Y2,R,ID,RK
ZONE T="  220" 
SOLUTIONTIME=     0.10950001,STRANDID=   1
  0.51739738E+00  0.43988110E+00  0.15815800E+00 -0.10834496E+01  0.20000000E-01    1    0
 VARIABLES= X1,X2,Y1,Y2,R,ID,RK
ZONE T="  222" 
SOLUTIONTIME=     0.11050001,STRANDID=   1
  0.51755554E+00  0.43879029E+00  0.15815800E+00 -0.10932562E+01  0.20000000E-01    1    0
 VARIABLES= X1,X2,Y1,Y2,R,ID,RK
ZONE T="  224" 
SOLUTIONTIME=     0.11150001,STRANDID=   1
  0.51771370E+00  0.43768968E+00  0.15815800E+00 -0.11030629E+01  0.20000000E-01    1    0
 VARIABLES= X1,X2,Y1,Y2,R,ID,RK
ZONE T="  226" 
SOLUTIONTIME=     0.11250001,STRANDID=   1
  0.51787185E+00  0.43657927E+00  0.15815800E+00 -0.11128695E+01  0.20000000E-01    1    0
 VARIABLES= X1,X2,Y1,Y2,R,ID,RK
ZONE T="  228" 
SOLUTIONTIME=     0.11350001,STRANDID=   1
  0.51803001E+00  0.43545904E+00  0.15815800E+00 -0.11226762E+01  0.20000000E-01    1    0
 VARIABLES= X1,X2,Y1,Y2,R,ID,RK
ZONE T="  230" 
SOLUTIONTIME=     0.11450001,STRANDID=   1
  0.51818817E+00  0.43432901E+00  0.15815800E+00 -0.11324828E+01  0.20000000E-01    1    0
 VARIABLES= X1,X2,Y1,Y2,R,ID,RK
ZONE T="  232" 
SOLUTIONTIME=     0.11550001,STRANDID=   1
  0.51834633E+00  0.43318917E+00  0.15815800E+00 -0.11422895E+01  0.20000000E-01    1    0
 VARIABLES= X1,X2,Y1,Y2,R,ID,RK
ZONE T="  234" 
SOLUTIONTIME=     0.11650001,STRANDID=   1
  0.51850449E+00  0.43203953E+00  0.15815800E+00 -0.11520961E+01  0.20000000E-01    1    0
 VARIABLES= X1,X2,Y1,Y2,R,ID,RK
ZONE T="  236" 
SOLUTIONTIME=     0.11750001,STRANDID=   1
  0.51866264E+00  0.43088008E+00  0.15815800E+00 -0.11619028E+01  0.20000000E-01    1    0
 VARIABLES= X1,X2,Y1,Y2,R,ID,RK
ZONE T="  238" 
SOLUTIONTIME=     0.11850001,STRANDID=   1
  0.51882080E+00  0.42971082E+00  0.15815800E+00 -0.11717094E+01  0.20000000E-01    1    0
 VARIABLES= X1,X2,Y1,Y2,R,ID,RK
ZONE T="  240" 
SOLUTIONTIME=     0.11950001,STRANDID=   1
  0.51897896E+00  0.42853175E+00  0.15815800E+00 -0.11815161E+01  0.20000000E-01    1    0
 VARIABLES= X1,X2,Y1,Y2,R,ID,RK
ZONE T="  242" 
SOLUTIONTIME=     0.12050001,STRANDID=   1
  0.51913712E+00  0.42734288E+00  0.15815800E+00 -0.11913227E+01  0.20000000E-01    1    0
 VARIABLES= X1,X2,Y1,Y2,R,ID,RK
ZONE T="  244" 
SOLUTIONTIME=     0.12150001,STRANDID=   1
  0.51929528E+00  0.42614420E+00  0.15815800E+00 -0.12011294E+01  0.20000000E-01    1    0
 VARIABLES= X1,X2,Y1,Y2,R,ID,RK
ZONE T="  246" 
SOLUTIONTIME=     0.12250001,STRANDID=   1
  0.51945343E+00  0.42493572E+00  0.15815800E+00 -0.12109360E+01  0.20000000E-01    1    0
 VARIABLES= X1,X2,Y1,Y2,R,ID,RK
ZONE T="  248" 
SOLUTIONTIME=     0.12350001,STRANDID=   1
  0.51961159E+00  0.42371743E+00  0.15815800E+00 -0.12207427E+01  0.20000000E-01    1    0
 VARIABLES= X1,X2,Y1,Y2,R,ID,RK
ZONE T="  250" 
SOLUTIONTIME=     0.12450001,STRANDID=   1
  0.51976975E+00  0.42248933E+00  0.15815800E+00 -0.12305493E+01  0.20000000E-01    1    0
 VARIABLES= X1,X2,Y1,Y2,R,ID,RK
ZONE T="  252" 
SOLUTIONTIME=     0.12550001,STRANDID=   1
  0.51992791E+00  0.42125143E+00  0.15815800E+00 -0.12403560E+01  0.20000000E-01    1    0
 VARIABLES= X1,X2,Y1,Y2,R,ID,RK
ZONE T="  254" 
SOLUTIONTIME=     0.12650001,STRANDID=   1
  0.52008607E+00  0.42000372E+00  0.15815800E+00 -0.12501626E+01  0.20000000E-01    1    0
 VARIABLES= X1,X2,Y1,Y2,R,ID,RK
ZONE T="  256" 
SOLUTIONTIME=     0.12750001,STRANDID=   1
  0.52024422E+00  0.41874620E+00  0.15815800E+00 -0.12599693E+01  0.20000000E-01    1    0
 VARIABLES= X1,X2,Y1,Y2,R,ID,RK
ZONE T="  258" 
SOLUTIONTIME=     0.12850001,STRANDID=   1
  0.52040238E+00  0.41747887E+00  0.15815800E+00 -0.12697759E+01  0.20000000E-01    1    0
 VARIABLES= X1,X2,Y1,Y2,R,ID,RK
ZONE T="  260" 
SOLUTIONTIME=     0.12950001,STRANDID=   1
  0.52056054E+00  0.41620174E+00  0.15815800E+00 -0.12795826E+01  0.20000000E-01    1    0
 VARIABLES= X1,X2,Y1,Y2,R,ID,RK
ZONE T="  262" 
SOLUTIONTIME=     0.13050001,STRANDID=   1
  0.52071870E+00  0.41491481E+00  0.15815800E+00 -0.12893892E+01  0.20000000E-01    1    0
 VARIABLES= X1,X2,Y1,Y2,R,ID,RK
ZONE T="  264" 
SOLUTIONTIME=     0.13150001,STRANDID=   1
  0.52087686E+00  0.41361806E+00  0.15815800E+00 -0.12991959E+01  0.20000000E-01    1    0
 VARIABLES= X1,X2,Y1,Y2,R,ID,RK
ZONE T="  266" 
SOLUTIONTIME=     0.13250001,STRANDID=   1
  0.52103501E+00  0.41231151E+00  0.15815800E+00 -0.13090025E+01  0.20000000E-01    1    0
 VARIABLES= X1,X2,Y1,Y2,R,ID,RK
ZONE T="  268" 
SOLUTIONTIME=     0.13350001,STRANDID=   1
  0.52119317E+00  0.41099515E+00  0.15815800E+00 -0.13188092E+01  0.20000000E-01    1    0
 VARIABLES= X1,X2,Y1,Y2,R,ID,RK
ZONE T="  270" 
SOLUTIONTIME=     0.13450001,STRANDID=   1
  0.52135133E+00  0.40966899E+00  0.15815800E+00 -0.13286158E+01  0.20000000E-01    1    0
 VARIABLES= X1,X2,Y1,Y2,R,ID,RK
ZONE T="  272" 
SOLUTIONTIME=     0.13550001,STRANDID=   1
  0.52150949E+00  0.40833302E+00  0.15815800E+00 -0.13384225E+01  0.20000000E-01    1    0
 VARIABLES= X1,X2,Y1,Y2,R,ID,RK
ZONE T="  274" 
SOLUTIONTIME=     0.13650001,STRANDID=   1
  0.52166765E+00  0.40698724E+00  0.15815800E+00 -0.13482291E+01  0.20000000E-01    1    0
 VARIABLES= X1,X2,Y1,Y2,R,ID,RK
ZONE T="  276" 
SOLUTIONTIME=     0.13750001,STRANDID=   1
  0.52182581E+00  0.40563166E+00  0.15815800E+00 -0.13580358E+01  0.20000000E-01    1    0
 VARIABLES= X1,X2,Y1,Y2,R,ID,RK
ZONE T="  278" 
SOLUTIONTIME=     0.13850001,STRANDID=   1
  0.52198396E+00  0.40426627E+00  0.15815800E+00 -0.13678424E+01  0.20000000E-01    1    0
 VARIABLES= X1,X2,Y1,Y2,R,ID,RK
ZONE T="  280" 
SOLUTIONTIME=     0.13950001,STRANDID=   1
  0.52214212E+00  0.40289107E+00  0.15815800E+00 -0.13776491E+01  0.20000000E-01    1    0
 VARIABLES= X1,X2,Y1,Y2,R,ID,RK
ZONE T="  282" 
SOLUTIONTIME=     0.14050001,STRANDID=   1
  0.52230028E+00  0.40150606E+00  0.15815800E+00 -0.13874557E+01  0.20000000E-01    1    0
 VARIABLES= X1,X2,Y1,Y2,R,ID,RK
ZONE T="  284" 
SOLUTIONTIME=     0.14150001,STRANDID=   1
  0.52245844E+00  0.40011125E+00  0.15815800E+00 -0.13972624E+01  0.20000000E-01    1    0
 VARIABLES= X1,X2,Y1,Y2,R,ID,RK
ZONE T="  286" 
SOLUTIONTIME=     0.14250001,STRANDID=   1
  0.52261660E+00  0.39870664E+00  0.15815800E+00 -0.14070690E+01  0.20000000E-01    1    0
 VARIABLES= X1,X2,Y1,Y2,R,ID,RK
ZONE T="  288" 
SOLUTIONTIME=     0.14350001,STRANDID=   1
  0.52277475E+00  0.39729221E+00  0.15815800E+00 -0.14168757E+01  0.20000000E-01    1    0
 VARIABLES= X1,X2,Y1,Y2,R,ID,RK
ZONE T="  290" 
SOLUTIONTIME=     0.14450001,STRANDID=   1
  0.52293291E+00  0.39586798E+00  0.15815800E+00 -0.14266823E+01  0.20000000E-01    1    0
 VARIABLES= X1,X2,Y1,Y2,R,ID,RK
ZONE T="  292" 
SOLUTIONTIME=     0.14550001,STRANDID=   1
  0.52309107E+00  0.39443394E+00  0.15815800E+00 -0.14364890E+01  0.20000000E-01    1    0
 VARIABLES= X1,X2,Y1,Y2,R,ID,RK
ZONE T="  294" 
SOLUTIONTIME=     0.14650001,STRANDID=   1
  0.52324923E+00  0.39299010E+00  0.15815800E+00 -0.14462956E+01  0.20000000E-01    1    0
 VARIABLES= X1,X2,Y1,Y2,R,ID,RK
ZONE T="  296" 
SOLUTIONTIME=     0.14750001,STRANDID=   1
  0.52340739E+00  0.39153645E+00  0.15815800E+00 -0.14561023E+01  0.20000000E-01    1    0
 VARIABLES= X1,X2,Y1,Y2,R,ID,RK
ZONE T="  298" 
SOLUTIONTIME=     0.14850001,STRANDID=   1
  0.52356554E+00  0.39007299E+00  0.15815800E+00 -0.14659089E+01  0.20000000E-01    1    0
 VARIABLES= X1,X2,Y1,Y2,R,ID,RK
ZONE T="  300" 
SOLUTIONTIME=     0.14950001,STRANDID=   1
  0.52372370E+00  0.38859973E+00  0.15815800E+00 -0.14757156E+01  0.20000000E-01    1    0
 VARIABLES= X1,X2,Y1,Y2,R,ID,RK
ZONE T="  302" 
SOLUTIONTIME=     0.15050001,STRANDID=   1
  0.52388186E+00  0.38711666E+00  0.15815800E+00 -0.14855222E+01  0.20000000E-01    1    0
 VARIABLES= X1,X2,Y1,Y2,R,ID,RK
ZONE T="  304" 
SOLUTIONTIME=     0.15150001,STRANDID=   1
  0.52404002E+00  0.38562378E+00  0.15815800E+00 -0.14953289E+01  0.20000000E-01    1    0
 VARIABLES= X1,X2,Y1,Y2,R,ID,RK
ZONE T="  306" 
SOLUTIONTIME=     0.15250001,STRANDID=   1
  0.52419818E+00  0.38412110E+00  0.15815800E+00 -0.15051355E+01  0.20000000E-01    1    0
 VARIABLES= X1,X2,Y1,Y2,R,ID,RK
ZONE T="  308" 
SOLUTIONTIME=     0.15350001,STRANDID=   1
  0.52435633E+00  0.38260861E+00  0.15815800E+00 -0.15149422E+01  0.20000000E-01    1    0
 VARIABLES= X1,X2,Y1,Y2,R,ID,RK
ZONE T="  310" 
SOLUTIONTIME=     0.15450001,STRANDID=   1
  0.52451449E+00  0.38108631E+00  0.15815800E+00 -0.15247488E+01  0.20000000E-01    1    0
 VARIABLES= X1,X2,Y1,Y2,R,ID,RK
ZONE T="  312" 
SOLUTIONTIME=     0.15550001,STRANDID=   1
  0.52467265E+00  0.37955420E+00  0.15815800E+00 -0.15345555E+01  0.20000000E-01    1    0
 VARIABLES= X1,X2,Y1,Y2,R,ID,RK
ZONE T="  314" 
SOLUTIONTIME=     0.15650001,STRANDID=   1
  0.52483081E+00  0.37801229E+00  0.15815800E+00 -0.15443621E+01  0.20000000E-01    1    0
 VARIABLES= X1,X2,Y1,Y2,R,ID,RK
ZONE T="  316" 
SOLUTIONTIME=     0.15750001,STRANDID=   1
  0.52498897E+00  0.37646058E+00  0.15815800E+00 -0.15541688E+01  0.20000000E-01    1    0
 VARIABLES= X1,X2,Y1,Y2,R,ID,RK
ZONE T="  318" 
SOLUTIONTIME=     0.15850001,STRANDID=   1
  0.52514712E+00  0.37489905E+00  0.15815800E+00 -0.15639754E+01  0.20000000E-01    1    0
 VARIABLES= X1,X2,Y1,Y2,R,ID,RK
ZONE T="  320" 
SOLUTIONTIME=     0.15950001,STRANDID=   1
  0.52530528E+00  0.37332772E+00  0.15815800E+00 -0.15737821E+01  0.20000000E-01    1    0
 VARIABLES= X1,X2,Y1,Y2,R,ID,RK
ZONE T="  322" 
SOLUTIONTIME=     0.16050001,STRANDID=   1
  0.52546344E+00  0.37174658E+00  0.15815800E+00 -0.15835887E+01  0.20000000E-01    1    0
 VARIABLES= X1,X2,Y1,Y2,R,ID,RK
ZONE T="  324" 
SOLUTIONTIME=     0.16150001,STRANDID=   1
  0.52562160E+00  0.37015564E+00  0.15815800E+00 -0.15933954E+01  0.20000000E-01    1    0
 VARIABLES= X1,X2,Y1,Y2,R,ID,RK
ZONE T="  326" 
SOLUTIONTIME=     0.16250001,STRANDID=   1
  0.52577976E+00  0.36855489E+00  0.15815800E+00 -0.16032020E+01  0.20000000E-01    1    0
 VARIABLES= X1,X2,Y1,Y2,R,ID,RK
ZONE T="  328" 
SOLUTIONTIME=     0.16350001,STRANDID=   1
  0.52593791E+00  0.36694433E+00  0.15815800E+00 -0.16130087E+01  0.20000000E-01    1    0
 VARIABLES= X1,X2,Y1,Y2,R,ID,RK
ZONE T="  330" 
SOLUTIONTIME=     0.16450001,STRANDID=   1