 VARIABLES= X1,X2,Y1,Y2,R,ID,RK
ZONE T="    2" 
SOLUTIONTIME=     0.00100000,STRANDID=  10
  0.29985515E+00  0.70998466E+00 -0.72427000E-01 -0.17475300E-01  0.20000000E-01   81    9
  0.30014206E+00  0.75501269E+00  0.71028000E-01 -0.34623000E-02  0.20000000E-01   82    9
  0.34513594E+00  0.71024953E+00  0.67971000E-01  0.11495770E+00  0.20000000E-01   83    9
  0.34520022E+00  0.75515793E+00  0.10011200E+00  0.69156700E-01  0.20000000E-01   84    9
  0.39011913E+00  0.71013540E+00  0.59564000E-01  0.57894700E-01  0.20000000E-01   85    9
  0.38966437E+00  0.75498465E+00 -0.16781600E+00 -0.17480300E-01  0.20000000E-01   86    9
  0.43527368E+00  0.70992854E+00  0.13684000E+00 -0.45536300E-01  0.20000000E-01   87    9
  0.43495035E+00  0.75481665E+00 -0.24825000E-01 -0.10148030E+00  0.20000000E-01   88    9
  0.47993457E+00  0.71015133E+00 -0.32714000E-01  0.65857700E-01  0.20000000E-01   89    9
  0.47973021E+00  0.75496267E+00 -0.13489400E+00 -0.28472300E-01  0.20000000E-01   90    9
 VARIABLES= X1,X2,Y1,Y2,R,ID,RK
ZONE T="    4" 
SOLUTIONTIME=     0.00300000,STRANDID=  10
  0.29971029E+00  0.70993010E+00 -0.72427000E-01 -0.37088600E-01  0.20000000E-01   81    9
  0.30028411E+00  0.75498615E+00  0.71028000E-01 -0.23075600E-01  0.20000000E-01   82    9
  0.34527188E+00  0.71045983E+00  0.67971000E-01  0.95344400E-01  0.20000000E-01   83    9
  0.34540045E+00  0.75527663E+00  0.10011200E+00  0.49543400E-01  0.20000000E-01   84    9
  0.39023826E+00  0.71023158E+00  0.59564000E-01  0.38281400E-01  0.20000000E-01   85    9
  0.38932874E+00  0.75493008E+00 -0.16781600E+00 -0.37093600E-01  0.20000000E-01   86    9
  0.43554736E+00  0.70981785E+00  0.13684000E+00 -0.65149600E-01  0.20000000E-01   87    9
  0.43490070E+00  0.75459408E+00 -0.24825000E-01 -0.12109360E+00  0.20000000E-01   88    9
  0.47986914E+00  0.71026343E+00 -0.32714000E-01  0.46244400E-01  0.20000000E-01   89    9
  0.47946042E+00  0.75488611E+00 -0.13489400E+00 -0.48085600E-01  0.20000000E-01   90    9
 VARIABLES= X1,X2,Y1,Y2,R,ID,RK
ZONE T="    6" 
SOLUTIONTIME=     0.00500000,STRANDID=  10
  0.29956544E+00  0.70983631E+00 -0.72427000E-01 -0.56701900E-01  0.20000000E-01   81    9
  0.30042617E+00  0.75492039E+00  0.71028000E-01 -0.42688900E-01  0.20000000E-01   82    9
  0.34540783E+00  0.71063091E+00  0.67971000E-01  0.75731100E-01  0.20000000E-01   83    9
  0.34560067E+00  0.75535610E+00  0.10011200E+00  0.29930100E-01  0.20000000E-01   84    9
  0.39035738E+00  0.71028853E+00  0.59564000E-01  0.18668100E-01  0.20000000E-01   85    9
  0.38899310E+00  0.75483628E+00 -0.16781600E+00 -0.56706900E-01  0.20000000E-01   86    9
  0.43582104E+00  0.70966794E+00  0.13684000E+00 -0.84762900E-01  0.20000000E-01   87    9
  0.43485105E+00  0.75433228E+00 -0.24825000E-01 -0.14070690E+00  0.20000000E-01   88    9
  0.47980372E+00  0.71033631E+00 -0.32714000E-01  0.26631100E-01  0.20000000E-01   89    9
  0.47919064E+00  0.75477033E+00 -0.13489400E+00 -0.67698900E-01  0.20000000E-01   90    9
 VARIABLES= X1,X2,Y1,Y2,R,ID,RK
ZONE T="    8" 
SOLUTIONTIME=     0.00700000,STRANDID=  10
  0.29942058E+00  0.70970329E+00 -0.72427000E-01 -0.76315200E-01  0.20000000E-01   81    9
  0.30056822E+00  0.75481540E+00  0.71028000E-01 -0.62302200E-01  0.20000000E-01   82    9
  0.34554377E+00  0.71076276E+00  0.67971000E-01  0.56117800E-01  0.20000000E-01   83    9
  0.34580090E+00  0.75539635E+00  0.10011200E+00  0.10316800E-01  0.20000000E-01   84    9
  0.39047651E+00  0.71030625E+00  0.59564000E-01 -0.94520000E-03  0.20000000E-01   85    9
  0.38865747E+00  0.75470325E+00 -0.16781600E+00 -0.76320200E-01  0.20000000E-01   86    9
  0.43609472E+00  0.70947880E+00  0.13684000E+00 -0.10437620E+00  0.20000000E-01   87    9
  0.43480140E+00  0.75403125E+00 -0.24825000E-01 -0.16032020E+00  0.20000000E-01   88    9
  0.47973829E+00  0.71036996E+00 -0.32714000E-01  0.70178000E-02  0.20000000E-01   89    9
  0.47892085E+00  0.75461532E+00 -0.13489400E+00 -0.87312200E-01  0.20000000E-01   90    9
 VARIABLES= X1,X2,Y1,Y2,R,ID,RK
ZONE T="   10" 
SOLUTIONTIME=     0.00900000,STRANDID=  10
  0.29927573E+00  0.70953105E+00 -0.72427000E-01 -0.95928500E-01  0.20000000E-01   81    9
  0.30071028E+00  0.75467118E+00  0.71028000E-01 -0.81915500E-01  0.20000000E-01   82    9
  0.34567971E+00  0.71085538E+00  0.67971000E-01  0.36504500E-01  0.20000000E-01   83    9
  0.34600112E+00  0.75539737E+00  0.10011200E+00 -0.92965000E-02  0.20000000E-01   84    9
  0.39059564E+00  0.71028475E+00  0.59564000E-01 -0.20558500E-01  0.20000000E-01   85    9
  0.38832184E+00  0.75453100E+00 -0.16781600E+00 -0.95933500E-01  0.20000000E-01   86    9
  0.43636840E+00  0.70925044E+00  0.13684000E+00 -0.12398950E+00  0.20000000E-01   87    9
  0.43475175E+00  0.75369100E+00 -0.24825000E-01 -0.17993350E+00  0.20000000E-01   88    9
  0.47967286E+00  0.71036438E+00 -0.32714000E-01 -0.12595500E-01  0.20000000E-01   89    9
  0.47865106E+00  0.75442108E+00 -0.13489400E+00 -0.10692550E+00  0.20000000E-01   90    9
 VARIABLES= X1,X2,Y1,Y2,R,ID,RK
ZONE T="   12" 
SOLUTIONTIME=     0.01100000,STRANDID=  10
  0.29913088E+00  0.70931958E+00 -0.72427000E-01 -0.11554180E+00  0.20000000E-01   81    9
  0.30085234E+00  0.75448773E+00  0.71028000E-01 -0.10152880E+00  0.20000000E-01   82    9
  0.34581565E+00  0.71090877E+00  0.67971000E-01  0.16891200E-01  0.20000000E-01   83    9
  0.34620134E+00  0.75535916E+00  0.10011200E+00 -0.28909800E-01  0.20000000E-01   84    9
  0.39071477E+00  0.71022402E+00  0.59564000E-01 -0.40171800E-01  0.20000000E-01   85    9
  0.38798621E+00  0.75431952E+00 -0.16781600E+00 -0.11554680E+00  0.20000000E-01   86    9
  0.43664208E+00  0.70898285E+00  0.13684000E+00 -0.14360280E+00  0.20000000E-01   87    9
  0.43470210E+00  0.75331152E+00 -0.24825000E-01 -0.19954680E+00  0.20000000E-01   88    9
  0.47960743E+00  0.71031957E+00 -0.32714000E-01 -0.32208800E-01  0.20000000E-01   89    9
  0.47838127E+00  0.75418761E+00 -0.13489400E+00 -0.12653880E+00  0.20000000E-01   90    9
