 VARIABLES= X1,X2,Y1,Y2,R,ID,RK
ZONE T="    2" 
SOLUTIONTIME=     0.00100000,STRANDID=   6
  0.29999889E+00  0.35001002E+00 -0.55500000E-03 -0.47973000E-02  0.20000000E-01    1    5
  0.29998820E+00  0.39479462E+00 -0.59010000E-02 -0.11249630E+00  0.20000000E-01    2    5
  0.29991006E+00  0.44000181E+00 -0.44969000E-01 -0.89023000E-02  0.20000000E-01    3    5
  0.29986178E+00  0.48475961E+00 -0.69111000E-01 -0.13000230E+00  0.20000000E-01    4    5
 VARIABLES= X1,X2,Y1,Y2,R,ID,RK
ZONE T="    4" 
SOLUTIONTIME=     0.00300000,STRANDID=   6
  0.29999778E+00  0.34998081E+00 -0.55500000E-03 -0.24410600E-01  0.20000000E-01    1    5
  0.29997640E+00  0.39455001E+00 -0.59010000E-02 -0.13210960E+00  0.20000000E-01    2    5
  0.29982012E+00  0.43996439E+00 -0.44969000E-01 -0.28515600E-01  0.20000000E-01    3    5
  0.29972356E+00  0.48447999E+00 -0.69111000E-01 -0.14961560E+00  0.20000000E-01    4    5
 VARIABLES= X1,X2,Y1,Y2,R,ID,RK
ZONE T="    6" 
SOLUTIONTIME=     0.00500000,STRANDID=   6
  0.29999667E+00  0.34991238E+00 -0.55500000E-03 -0.44023900E-01  0.20000000E-01    1    5
  0.29996459E+00  0.39426618E+00 -0.59010000E-02 -0.15172290E+00  0.20000000E-01    2    5
  0.29973019E+00  0.43988775E+00 -0.44969000E-01 -0.48128900E-01  0.20000000E-01    3    5
  0.29958533E+00  0.48416115E+00 -0.69111000E-01 -0.16922890E+00  0.20000000E-01    4    5
 VARIABLES= X1,X2,Y1,Y2,R,ID,RK
ZONE T="    8" 
SOLUTIONTIME=     0.00700000,STRANDID=   6
  0.29999556E+00  0.34980472E+00 -0.55500000E-03 -0.63637200E-01  0.20000000E-01    1    5
  0.29995279E+00  0.39394312E+00 -0.59010000E-02 -0.17133620E+00  0.20000000E-01    2    5
  0.29964025E+00  0.43977188E+00 -0.44969000E-01 -0.67742200E-01  0.20000000E-01    3    5
  0.29944711E+00  0.48380308E+00 -0.69111000E-01 -0.18884220E+00  0.20000000E-01    4    5
 VARIABLES= X1,X2,Y1,Y2,R,ID,RK
ZONE T="   10" 
SOLUTIONTIME=     0.00900000,STRANDID=   6
  0.29999445E+00  0.34965783E+00 -0.55500000E-03 -0.83250500E-01  0.20000000E-01    1    5
  0.29994099E+00  0.39358084E+00 -0.59010000E-02 -0.19094950E+00  0.20000000E-01    2    5
  0.29955031E+00  0.43961678E+00 -0.44969000E-01 -0.87355500E-01  0.20000000E-01    3    5
  0.29930889E+00  0.48340578E+00 -0.69111000E-01 -0.20845550E+00  0.20000000E-01    4    5
 VARIABLES= X1,X2,Y1,Y2,R,ID,RK
ZONE T="   12" 
SOLUTIONTIME=     0.01100000,STRANDID=   6
  0.29999334E+00  0.34947171E+00 -0.55500000E-03 -0.10286380E+00  0.20000000E-01    1    5
  0.29992919E+00  0.39317933E+00 -0.59010000E-02 -0.21056280E+00  0.20000000E-01    2    5
  0.29946037E+00  0.43942245E+00 -0.44969000E-01 -0.10696880E+00  0.20000000E-01    3    5
  0.29917067E+00  0.48296925E+00 -0.69111000E-01 -0.22806880E+00  0.20000000E-01    4    5
 VARIABLES= X1,X2,Y1,Y2,R,ID,RK
ZONE T="   14" 
SOLUTIONTIME=     0.01300000,STRANDID=   6
  0.29999223E+00  0.34924637E+00 -0.55500000E-03 -0.12247710E+00  0.20000000E-01    1    5
  0.29991739E+00  0.39273859E+00 -0.59010000E-02 -0.23017610E+00  0.20000000E-01    2    5
  0.29937043E+00  0.43918890E+00 -0.44969000E-01 -0.12658210E+00  0.20000000E-01    3    5
  0.29903245E+00  0.48249350E+00 -0.69111000E-01 -0.24768210E+00  0.20000000E-01    4    5
 VARIABLES= X1,X2,Y1,Y2,R,ID,RK
ZONE T="   16" 
SOLUTIONTIME=     0.01500000,STRANDID=   6
  0.29999112E+00  0.34898180E+00 -0.55500000E-03 -0.14209040E+00  0.20000000E-01    1    5
  0.29990558E+00  0.39225862E+00 -0.59010000E-02 -0.24978940E+00  0.20000000E-01    2    5
  0.29928050E+00  0.43891612E+00 -0.44969000E-01 -0.14619540E+00  0.20000000E-01    3    5
  0.29889422E+00  0.48197852E+00 -0.69111000E-01 -0.26729540E+00  0.20000000E-01    4    5
 VARIABLES= X1,X2,Y1,Y2,R,ID,RK
ZONE T="   18" 
SOLUTIONTIME=     0.01700000,STRANDID=   6
  0.29999001E+00  0.34867801E+00 -0.55500000E-03 -0.16170370E+00  0.20000000E-01    1    5
  0.29989378E+00  0.39173943E+00 -0.59010000E-02 -0.26940270E+00  0.20000000E-01    2    5
  0.29919056E+00  0.43860412E+00 -0.44969000E-01 -0.16580870E+00  0.20000000E-01    3    5
  0.29875600E+00  0.48142432E+00 -0.69111000E-01 -0.28690870E+00  0.20000000E-01    4    5
 VARIABLES= X1,X2,Y1,Y2,R,ID,RK
ZONE T="   20" 
SOLUTIONTIME=     0.01900000,STRANDID=   6
  0.29998890E+00  0.34833499E+00 -0.55500000E-03 -0.18131700E+00  0.20000000E-01    1    5
  0.29988198E+00  0.39118101E+00 -0.59010000E-02 -0.28901600E+00  0.20000000E-01    2    5
  0.29910062E+00  0.43825289E+00 -0.44969000E-01 -0.18542200E+00  0.20000000E-01    3    5
  0.29861778E+00  0.48083089E+00 -0.69111000E-01 -0.30652200E+00  0.20000000E-01    4    5
 VARIABLES= X1,X2,Y1,Y2,R,ID,RK
ZONE T="   22" 
SOLUTIONTIME=     0.02100000,STRANDID=   6
  0.29998779E+00  0.34795274E+00 -0.55500000E-03 -0.20093030E+00  0.20000000E-01    1    5
  0.29987018E+00  0.39058336E+00 -0.59010000E-02 -0.30862930E+00  0.20000000E-01    2    5
  0.29901068E+00  0.43786243E+00 -0.44969000E-01 -0.20503530E+00  0.20000000E-01    3    5
  0.29847956E+00  0.48019823E+00 -0.69111000E-01 -0.32613530E+00  0.20000000E-01    4    5
 VARIABLES= X1,X2,Y1,Y2,R,ID,RK
ZONE T="   24" 
SOLUTIONTIME=     0.02300000,STRANDID=   6
  0.29998668E+00  0.34753127E+00 -0.55500000E-03 -0.22054360E+00  0.20000000E-01    1    5
  0.29985838E+00  0.38994649E+00 -0.59010000E-02 -0.32824260E+00  0.20000000E-01    2    5
  0.29892074E+00  0.43743275E+00 -0.44969000E-01 -0.22464860E+00  0.20000000E-01    3    5
  0.29834134E+00  0.47952635E+00 -0.69111000E-01 -0.34574860E+00  0.20000000E-01    4    5
 VARIABLES= X1,X2,Y1,Y2,R,ID,RK
ZONE T="   26" 
SOLUTIONTIME=     0.02500000,STRANDID=   6
  0.29998557E+00  0.34707057E+00 -0.55500000E-03 -0.24015690E+00  0.20000000E-01    1    5
  0.29984657E+00  0.38927039E+00 -0.59010000E-02 -0.34785590E+00  0.20000000E-01    2    5
  0.29883081E+00  0.43696384E+00 -0.44969000E-01 -0.24426190E+00  0.20000000E-01    3    5
  0.29820311E+00  0.47881524E+00 -0.69111000E-01 -0.36536190E+00  0.20000000E-01    4    5
 VARIABLES= X1,X2,Y1,Y2,R,ID,RK
ZONE T="   28" 
SOLUTIONTIME=     0.02700000,STRANDID=   6
  0.29998446E+00  0.34657064E+00 -0.55500000E-03 -0.25977020E+00  0.20000000E-01    1    5
  0.29983477E+00  0.38855507E+00 -0.59010000E-02 -0.36746920E+00  0.20000000E-01    2    5
  0.29874087E+00  0.43645570E+00 -0.44969000E-01 -0.26387520E+00  0.20000000E-01    3    5
  0.29806489E+00  0.47806490E+00 -0.69111000E-01 -0.38497520E+00  0.20000000E-01    4    5
 VARIABLES= X1,X2,Y1,Y2,R,ID,RK
ZONE T="   30" 
SOLUTIONTIME=     0.02900000,STRANDID=   6
  0.29998335E+00  0.34603149E+00 -0.55500000E-03 -0.27938350E+00  0.20000000E-01    1    5
  0.29982297E+00  0.38780052E+00 -0.59010000E-02 -0.38708250E+00  0.20000000E-01    2    5
  0.29865093E+00  0.43590834E+00 -0.44969000E-01 -0.28348850E+00  0.20000000E-01    3    5
  0.29792667E+00  0.47727534E+00 -0.69111000E-01 -0.40458850E+00  0.20000000E-01    4    5
 VARIABLES= X1,X2,Y1,Y2,R,ID,RK
ZONE T="   32" 
SOLUTIONTIME=     0.03100000,STRANDID=   6
  0.29998224E+00  0.34545311E+00 -0.55500000E-03 -0.29899680E+00  0.20000000E-01    1    5
  0.29981117E+00  0.38700674E+00 -0.59010000E-02 -0.40669580E+00  0.20000000E-01    2    5
  0.29856099E+00  0.43532175E+00 -0.44969000E-01 -0.30310180E+00  0.20000000E-01    3    5
  0.29778845E+00  0.47644655E+00 -0.69111000E-01 -0.42420180E+00  0.20000000E-01    4    5
 VARIABLES= X1,X2,Y1,Y2,R,ID,RK
ZONE T="   34" 
SOLUTIONTIME=     0.03300000,STRANDID=   6
  0.29998113E+00  0.34483550E+00 -0.55500000E-03 -0.31861010E+00  0.20000000E-01    1    5
  0.29979937E+00  0.38617373E+00 -0.59010000E-02 -0.42630910E+00  0.20000000E-01    2    5
  0.29847105E+00  0.43469593E+00 -0.44969000E-01 -0.32271510E+00  0.20000000E-01    3    5
  0.29765023E+00  0.47557853E+00 -0.69111000E-01 -0.44381510E+00  0.20000000E-01    4    5
 VARIABLES= X1,X2,Y1,Y2,R,ID,RK
ZONE T="   36" 
SOLUTIONTIME=     0.03500000,STRANDID=   6
  0.29998002E+00  0.34417867E+00 -0.55500000E-03 -0.33822340E+00  0.20000000E-01    1    5
  0.29978756E+00  0.38530150E+00 -0.59010000E-02 -0.44592240E+00  0.20000000E-01    2    5
  0.29838112E+00  0.43403089E+00 -0.44969000E-01 -0.34232840E+00  0.20000000E-01    3    5
  0.29751200E+00  0.47467129E+00 -0.69111000E-01 -0.46342840E+00  0.20000000E-01    4    5
 VARIABLES= X1,X2,Y1,Y2,R,ID,RK
ZONE T="   38" 
SOLUTIONTIME=     0.03700000,STRANDID=   6
  0.29997891E+00  0.34348261E+00 -0.55500000E-03 -0.35783670E+00  0.20000000E-01    1    5
  0.29977576E+00  0.38439004E+00 -0.59010000E-02 -0.46553570E+00  0.20000000E-01    2    5
  0.29829118E+00  0.43332662E+00 -0.44969000E-01 -0.36194170E+00  0.20000000E-01    3    5
  0.29737378E+00  0.47372482E+00 -0.69111000E-01 -0.48304170E+00  0.20000000E-01    4    5
 VARIABLES= X1,X2,Y1,Y2,R,ID,RK
ZONE T="   40" 
SOLUTIONTIME=     0.03900000,STRANDID=   6
  0.29997780E+00  0.34274732E+00 -0.55500000E-03 -0.37745000E+00  0.20000000E-01    1    5
  0.29976396E+00  0.38343936E+00 -0.59010000E-02 -0.48514900E+00  0.20000000E-01    2    5
  0.29820124E+00  0.43258312E+00 -0.44969000E-01 -0.38155500E+00  0.20000000E-01    3    5
  0.29723556E+00  0.47273912E+00 -0.69111000E-01 -0.50265500E+00  0.20000000E-01    4    5
