 VARIABLES= X1,X2,Y1,Y2,R,ID,RK
ZONE T="    2" 
SOLUTIONTIME=     0.00100000,STRANDID=   1
  0.29999889E+00  0.35001002E+00 -0.55500000E-03 -0.47973000E-02  0.20000000E-01    1    0
  0.29998820E+00  0.39479462E+00 -0.59010000E-02 -0.11249630E+00  0.20000000E-01    2    0
  0.29991006E+00  0.44000181E+00 -0.44969000E-01 -0.89023000E-02  0.20000000E-01    3    0
  0.29986178E+00  0.48475961E+00 -0.69111000E-01 -0.13000230E+00  0.20000000E-01    4    0
  0.34514413E+00  0.35022438E+00  0.72063000E-01  0.10238370E+00  0.20000000E-01    5    0
  0.34506806E+00  0.39482342E+00  0.34031000E-01 -0.98094300E-01  0.20000000E-01    6    0
  0.34516915E+00  0.43984943E+00  0.84577000E-01 -0.85089300E-01  0.20000000E-01    7    0
  0.34493263E+00  0.48490058E+00 -0.33686000E-01 -0.59518300E-01  0.20000000E-01    8    0
  0.38989307E+00  0.34998777E+00 -0.53463000E-01 -0.15919300E-01  0.20000000E-01    9    0
  0.38996086E+00  0.39525411E+00 -0.19571000E-01  0.11724870E+00  0.20000000E-01   10    0
  0.39015969E+00  0.44022254E+00  0.79845000E-01  0.10146470E+00  0.20000000E-01   11    0
  0.38984460E+00  0.48486790E+00 -0.77701000E-01 -0.75855300E-01  0.20000000E-01   12    0
  0.43500916E+00  0.35012590E+00  0.45790000E-02  0.53141700E-01  0.20000000E-01   13    0
  0.43526727E+00  0.39565378E+00  0.13363500E+00  0.31708370E+00  0.20000000E-01   14    0
  0.43465282E+00  0.44008663E+00 -0.17359100E+00  0.33509700E-01  0.20000000E-01   15    0
  0.43476353E+00  0.48482185E+00 -0.11823400E+00 -0.98880300E-01  0.20000000E-01   16    0
  0.47994820E+00  0.35038834E+00 -0.25901000E-01  0.18436570E+00  0.20000000E-01   17    0
  0.48013698E+00  0.39480538E+00  0.68492000E-01 -0.10711730E+00  0.20000000E-01   18    0
  0.47985902E+00  0.43992976E+00 -0.70489000E-01 -0.44925300E-01  0.20000000E-01   19    0
  0.48017335E+00  0.48504485E+00  0.86676000E-01  0.12620700E-01  0.20000000E-01   20    0
 VARIABLES= X1,X2,Y1,Y2,R,ID,RK
ZONE T="    4" 
SOLUTIONTIME=     0.00300000,STRANDID=   1
  0.29999778E+00  0.34998081E+00 -0.55500000E-03 -0.24410600E-01  0.20000000E-01    1    0
  0.29997640E+00  0.39455001E+00 -0.59010000E-02 -0.13210960E+00  0.20000000E-01    2    0
  0.29982012E+00  0.43996439E+00 -0.44969000E-01 -0.28515600E-01  0.20000000E-01    3    0
  0.29972356E+00  0.48447999E+00 -0.69111000E-01 -0.14961560E+00  0.20000000E-01    4    0
  0.34528825E+00  0.35040953E+00  0.72063000E-01  0.82770400E-01  0.20000000E-01    5    0
  0.34513612E+00  0.39460762E+00  0.34031000E-01 -0.11770760E+00  0.20000000E-01    6    0
  0.34533831E+00  0.43965964E+00  0.84577000E-01 -0.10470260E+00  0.20000000E-01    7    0
  0.34486526E+00  0.48476193E+00 -0.33686000E-01 -0.79131600E-01  0.20000000E-01    8    0
  0.38978615E+00  0.34993632E+00 -0.53463000E-01 -0.35532600E-01  0.20000000E-01    9    0
  0.38992172E+00  0.39546899E+00 -0.19571000E-01  0.97635400E-01  0.20000000E-01   10    0
  0.39031938E+00  0.44040586E+00  0.79845000E-01  0.81851400E-01  0.20000000E-01   11    0
  0.38968920E+00  0.48469658E+00 -0.77701000E-01 -0.95468600E-01  0.20000000E-01   12    0
  0.43501832E+00  0.35021257E+00  0.45790000E-02  0.33528400E-01  0.20000000E-01   13    0
  0.43553454E+00  0.39626833E+00  0.13363500E+00  0.29747040E+00  0.20000000E-01   14    0
  0.43430564E+00  0.44013404E+00 -0.17359100E+00  0.13896400E-01  0.20000000E-01   15    0
  0.43452706E+00  0.48460448E+00 -0.11823400E+00 -0.11849360E+00  0.20000000E-01   16    0
  0.47989640E+00  0.35073746E+00 -0.25901000E-01  0.16475240E+00  0.20000000E-01   17    0
  0.48027397E+00  0.39457153E+00  0.68492000E-01 -0.12673060E+00  0.20000000E-01   18    0
  0.47971804E+00  0.43982030E+00 -0.70489000E-01 -0.64538600E-01  0.20000000E-01   19    0
  0.48034670E+00  0.48505048E+00  0.86676000E-01 -0.69926000E-02  0.20000000E-01   20    0
 VARIABLES= X1,X2,Y1,Y2,R,ID,RK
ZONE T="    6" 
SOLUTIONTIME=     0.00500000,STRANDID=   1
  0.29999667E+00  0.34991238E+00 -0.55500000E-03 -0.44023900E-01  0.20000000E-01    1    0
  0.29996459E+00  0.39426618E+00 -0.59010000E-02 -0.15172290E+00  0.20000000E-01    2    0
  0.29973019E+00  0.43988775E+00 -0.44969000E-01 -0.48128900E-01  0.20000000E-01    3    0
  0.29958533E+00  0.48416115E+00 -0.69111000E-01 -0.16922890E+00  0.20000000E-01    4    0
  0.34543238E+00  0.35055546E+00  0.72063000E-01  0.63157100E-01  0.20000000E-01    5    0
  0.34520419E+00  0.39435259E+00  0.34031000E-01 -0.13732090E+00  0.20000000E-01    6    0
  0.34550746E+00  0.43943062E+00  0.84577000E-01 -0.12431590E+00  0.20000000E-01    7    0
  0.34479788E+00  0.48458405E+00 -0.33686000E-01 -0.98744900E-01  0.20000000E-01    8    0
  0.38967922E+00  0.34984564E+00 -0.53463000E-01 -0.55145900E-01  0.20000000E-01    9    0
  0.38988257E+00  0.39564465E+00 -0.19571000E-01  0.78022100E-01  0.20000000E-01   10    0
  0.39047907E+00  0.44054995E+00  0.79845000E-01  0.62238100E-01  0.20000000E-01   11    0
  0.38953379E+00  0.48448603E+00 -0.77701000E-01 -0.11508190E+00  0.20000000E-01   12    0
  0.43502747E+00  0.35026001E+00  0.45790000E-02  0.13915100E-01  0.20000000E-01   13    0
  0.43580181E+00  0.39684366E+00  0.13363500E+00  0.27785710E+00  0.20000000E-01   14    0
  0.43395845E+00  0.44014222E+00 -0.17359100E+00 -0.57169000E-02  0.20000000E-01   15    0
  0.43429060E+00  0.48434788E+00 -0.11823400E+00 -0.13810690E+00  0.20000000E-01   16    0
  0.47984459E+00  0.35104735E+00 -0.25901000E-01  0.14513910E+00  0.20000000E-01   17    0
  0.48041095E+00  0.39429846E+00  0.68492000E-01 -0.14634390E+00  0.20000000E-01   18    0
  0.47957707E+00  0.43967161E+00 -0.70489000E-01 -0.84151900E-01  0.20000000E-01   19    0
  0.48052006E+00  0.48501688E+00  0.86676000E-01 -0.26605900E-01  0.20000000E-01   20    0
 VARIABLES= X1,X2,Y1,Y2,R,ID,RK
ZONE T="    8" 
SOLUTIONTIME=     0.00700000,STRANDID=   1
  0.29999556E+00  0.34980472E+00 -0.55500000E-03 -0.63637200E-01  0.20000000E-01    1    0
  0.29995279E+00  0.39394312E+00 -0.59010000E-02 -0.17133620E+00  0.20000000E-01    2    0
  0.29964025E+00  0.43977188E+00 -0.44969000E-01 -0.67742200E-01  0.20000000E-01    3    0
  0.29944711E+00  0.48380308E+00 -0.69111000E-01 -0.18884220E+00  0.20000000E-01    4    0
  0.34557650E+00  0.35066216E+00  0.72063000E-01  0.43543800E-01  0.20000000E-01    5    0
  0.34527225E+00  0.39405834E+00  0.34031000E-01 -0.15693420E+00  0.20000000E-01    6    0
  0.34567662E+00  0.43916238E+00  0.84577000E-01 -0.14392920E+00  0.20000000E-01    7    0
  0.34473051E+00  0.48436695E+00 -0.33686000E-01 -0.11835820E+00  0.20000000E-01    8    0
  0.38957230E+00  0.34971574E+00 -0.53463000E-01 -0.74759200E-01  0.20000000E-01    9    0
  0.38984343E+00  0.39578108E+00 -0.19571000E-01  0.58408800E-01  0.20000000E-01   10    0
  0.39063876E+00  0.44065481E+00  0.79845000E-01  0.42624800E-01  0.20000000E-01   11    0
  0.38937839E+00  0.48423625E+00 -0.77701000E-01 -0.13469520E+00  0.20000000E-01   12    0
  0.43503663E+00  0.35026823E+00  0.45790000E-02 -0.56982000E-02  0.20000000E-01   13    0
  0.43606908E+00  0.39737976E+00  0.13363500E+00  0.25824380E+00  0.20000000E-01   14    0
  0.43361127E+00  0.44011117E+00 -0.17359100E+00 -0.25330200E-01  0.20000000E-01   15    0
  0.43405413E+00  0.48405205E+00 -0.11823400E+00 -0.15772020E+00  0.20000000E-01   16    0
  0.47979279E+00  0.35131802E+00 -0.25901000E-01  0.12552580E+00  0.20000000E-01   17    0
  0.48054794E+00  0.39398616E+00  0.68492000E-01 -0.16595720E+00  0.20000000E-01   18    0
  0.47943609E+00  0.43948369E+00 -0.70489000E-01 -0.10376520E+00  0.20000000E-01   19    0
  0.48069341E+00  0.48494406E+00  0.86676000E-01 -0.46219200E-01  0.20000000E-01   20    0
 VARIABLES= X1,X2,Y1,Y2,R,ID,RK
ZONE T="   10" 
SOLUTIONTIME=     0.00900000,STRANDID=   1
  0.29999445E+00  0.34965783E+00 -0.55500000E-03 -0.83250500E-01  0.20000000E-01    1    0
  0.29994099E+00  0.39358084E+00 -0.59010000E-02 -0.19094950E+00  0.20000000E-01    2    0
  0.29955031E+00  0.43961678E+00 -0.44969000E-01 -0.87355500E-01  0.20000000E-01    3    0
  0.29930889E+00  0.48340578E+00 -0.69111000E-01 -0.20845550E+00  0.20000000E-01    4    0
  0.34572063E+00  0.35072964E+00  0.72063000E-01  0.23930500E-01  0.20000000E-01    5    0
  0.34534031E+00  0.39372486E+00  0.34031000E-01 -0.17654750E+00  0.20000000E-01    6    0
  0.34584577E+00  0.43885491E+00  0.84577000E-01 -0.16354250E+00  0.20000000E-01    7    0
  0.34466314E+00  0.48411062E+00 -0.33686000E-01 -0.13797150E+00  0.20000000E-01    8    0
  0.38946537E+00  0.34954661E+00 -0.53463000E-01 -0.94372500E-01  0.20000000E-01    9    0
  0.38980429E+00  0.39587829E+00 -0.19571000E-01  0.38795500E-01  0.20000000E-01   10    0
  0.39079845E+00  0.44072045E+00  0.79845000E-01  0.23011500E-01  0.20000000E-01   11    0
  0.38922299E+00  0.48394725E+00 -0.77701000E-01 -0.15430850E+00  0.20000000E-01   12    0
  0.43504579E+00  0.35023722E+00  0.45790000E-02 -0.25311500E-01  0.20000000E-01   13    0
  0.43633635E+00  0.39787664E+00  0.13363500E+00  0.23863050E+00  0.20000000E-01   14    0
  0.43326409E+00  0.44004090E+00 -0.17359100E+00 -0.44943500E-01  0.20000000E-01   15    0
  0.43381766E+00  0.48371700E+00 -0.11823400E+00 -0.17733350E+00  0.20000000E-01   16    0
  0.47974099E+00  0.35154946E+00 -0.25901000E-01  0.10591250E+00  0.20000000E-01   17    0
  0.48068492E+00  0.39363463E+00  0.68492000E-01 -0.18557050E+00  0.20000000E-01   18    0
  0.47929511E+00  0.43925655E+00 -0.70489000E-01 -0.12337850E+00  0.20000000E-01   19    0
  0.48086676E+00  0.48483201E+00  0.86676000E-01 -0.65832500E-01  0.20000000E-01   20    0
 VARIABLES= X1,X2,Y1,Y2,R,ID,RK
ZONE T="   12" 
SOLUTIONTIME=     0.01100000,STRANDID=   1
  0.29999334E+00  0.34947171E+00 -0.55500000E-03 -0.10286380E+00  0.20000000E-01    1    0
  0.29992919E+00  0.39317933E+00 -0.59010000E-02 -0.21056280E+00  0.20000000E-01    2    0
  0.29946037E+00  0.43942245E+00 -0.44969000E-01 -0.10696880E+00  0.20000000E-01    3    0
  0.29917067E+00  0.48296925E+00 -0.69111000E-01 -0.22806880E+00  0.20000000E-01    4    0
  0.34586476E+00  0.35075789E+00  0.72063000E-01  0.43172000E-02  0.20000000E-01    5    0
  0.34540837E+00  0.39335215E+00  0.34031000E-01 -0.19616080E+00  0.20000000E-01    6    0
  0.34601492E+00  0.43850821E+00  0.84577000E-01 -0.18315580E+00  0.20000000E-01    7    0
  0.34459577E+00  0.48381506E+00 -0.33686000E-01 -0.15758480E+00  0.20000000E-01    8    0
  0.38935844E+00  0.34933825E+00 -0.53463000E-01 -0.11398580E+00  0.20000000E-01    9    0
  0.38976515E+00  0.39593627E+00 -0.19571000E-01  0.19182200E-01  0.20000000E-01   10    0
  0.39095814E+00  0.44074686E+00  0.79845000E-01  0.33982000E-02  0.20000000E-01   11    0
  0.38906759E+00  0.48361902E+00 -0.77701000E-01 -0.17392180E+00  0.20000000E-01   12    0
  0.43505495E+00  0.35016698E+00  0.45790000E-02 -0.44924800E-01  0.20000000E-01   13    0
  0.43660362E+00  0.39833429E+00  0.13363500E+00  0.21901720E+00  0.20000000E-01   14    0
  0.43291691E+00  0.43993140E+00 -0.17359100E+00 -0.64556800E-01  0.20000000E-01   15    0
  0.43358119E+00  0.48334272E+00 -0.11823400E+00 -0.19694680E+00  0.20000000E-01   16    0
  0.47968919E+00  0.35174167E+00 -0.25901000E-01  0.86299200E-01  0.20000000E-01   17    0
  0.48082190E+00  0.39324387E+00  0.68492000E-01 -0.20518380E+00  0.20000000E-01   18    0
  0.47915413E+00  0.43899018E+00 -0.70489000E-01 -0.14299180E+00  0.20000000E-01   19    0
  0.48104011E+00  0.48468073E+00  0.86676000E-01 -0.85445800E-01  0.20000000E-01   20    0
 VARIABLES= X1,X2,Y1,Y2,R,ID,RK
ZONE T="    2" 
SOLUTIONTIME=     0.00100000,STRANDID=   2
  0.52451986E+00  0.34984759E+00 -0.24007000E+00 -0.86011300E-01  0.20000000E-01   21    1
  0.52508801E+00  0.39522696E+00  0.44003000E-01  0.10367570E+00  0.20000000E-01   22    1
  0.52519574E+00  0.43981200E+00  0.97868000E-01 -0.10380730E+00  0.20000000E-01   23    1
  0.52484129E+00  0.48475193E+00 -0.79353000E-01 -0.13383930E+00  0.20000000E-01   24    1
  0.56994999E+00  0.34961940E+00 -0.25004000E-01 -0.20010430E+00  0.20000000E-01   25    1
  0.57012373E+00  0.39497738E+00  0.61864000E-01 -0.21115300E-01  0.20000000E-01   26    1
  0.57029153E+00  0.44024112E+00  0.14576600E+00  0.11075170E+00  0.20000000E-01   27    1
  0.56991006E+00  0.48484566E+00 -0.44968000E-01 -0.86975300E-01  0.20000000E-01   28    1
  0.61496580E+00  0.34971874E+00 -0.17101000E-01 -0.15043830E+00  0.20000000E-01   29    1
  0.61500074E+00  0.39481725E+00  0.37200000E-03 -0.10118130E+00  0.20000000E-01   30    1
  0.61515650E+00  0.43983370E+00  0.78252000E-01 -0.92958300E-01  0.20000000E-01   31    1
  0.61492685E+00  0.48505297E+00 -0.36575000E-01  0.16677700E-01  0.20000000E-01   32    1
  0.65989810E+00  0.35011265E+00 -0.50949000E-01  0.46518700E-01  0.20000000E-01   33    1
  0.65971338E+00  0.39503952E+00 -0.14330800E+00  0.99537000E-02  0.20000000E-01   34    1
  0.65990683E+00  0.44010366E+00 -0.46584000E-01  0.42024700E-01  0.20000000E-01   35    1
  0.65982738E+00  0.48497911E+00 -0.86312000E-01 -0.20252300E-01  0.20000000E-01   36    1
  0.70503171E+00  0.34985935E+00  0.15855000E-01 -0.80132300E-01  0.20000000E-01   37    1
  0.70509431E+00  0.39500263E+00  0.47155000E-01 -0.84903000E-02  0.20000000E-01   38    1
  0.70516397E+00  0.43997905E+00  0.81983000E-01 -0.20281300E-01  0.20000000E-01   39    1
  0.70474998E+00  0.48497911E+00 -0.12500900E+00 -0.20251300E-01  0.20000000E-01   40    1
 VARIABLES= X1,X2,Y1,Y2,R,ID,RK
ZONE T="    4" 
SOLUTIONTIME=     0.00300000,STRANDID=   2
  0.52403972E+00  0.34965595E+00 -0.24007000E+00 -0.10562460E+00  0.20000000E-01   21    1
  0.52517601E+00  0.39541470E+00  0.44003000E-01  0.84062400E-01  0.20000000E-01   22    1
  0.52539147E+00  0.43958477E+00  0.97868000E-01 -0.12342060E+00  0.20000000E-01   23    1
  0.52468259E+00  0.48446464E+00 -0.79353000E-01 -0.15345260E+00  0.20000000E-01   24    1
  0.56989998E+00  0.34919958E+00 -0.25004000E-01 -0.21971760E+00  0.20000000E-01   25    1
  0.57024746E+00  0.39491554E+00  0.61864000E-01 -0.40728600E-01  0.20000000E-01   26    1
  0.57058306E+00  0.44044301E+00  0.14576600E+00  0.91138400E-01  0.20000000E-01   27    1
  0.56982013E+00  0.48465210E+00 -0.44968000E-01 -0.10658860E+00  0.20000000E-01   28    1
  0.61493160E+00  0.34939825E+00 -0.17101000E-01 -0.17005160E+00  0.20000000E-01   29    1
  0.61500149E+00  0.39459527E+00  0.37200000E-03 -0.12079460E+00  0.20000000E-01   30    1
  0.61531301E+00  0.43962817E+00  0.78252000E-01 -0.11257160E+00  0.20000000E-01   31    1
  0.61485370E+00  0.48506671E+00 -0.36575000E-01 -0.29356000E-02  0.20000000E-01   32    1
  0.65979620E+00  0.35018607E+00 -0.50949000E-01  0.26905400E-01  0.20000000E-01   33    1
  0.65942677E+00  0.39503981E+00 -0.14330800E+00 -0.96596000E-02  0.20000000E-01   34    1
  0.65981366E+00  0.44016810E+00 -0.46584000E-01  0.22411400E-01  0.20000000E-01   35    1
  0.65965475E+00  0.48491899E+00 -0.86312000E-01 -0.39865600E-01  0.20000000E-01   36    1
  0.70506342E+00  0.34967947E+00  0.15855000E-01 -0.99745600E-01  0.20000000E-01   37    1
  0.70518862E+00  0.39496604E+00  0.47155000E-01 -0.28103600E-01  0.20000000E-01   38    1
  0.70532793E+00  0.43991887E+00  0.81983000E-01 -0.39894600E-01  0.20000000E-01   39    1
  0.70449996E+00  0.48491899E+00 -0.12500900E+00 -0.39864600E-01  0.20000000E-01   40    1
 VARIABLES= X1,X2,Y1,Y2,R,ID,RK
ZONE T="    6" 
SOLUTIONTIME=     0.00500000,STRANDID=   2
  0.52355958E+00  0.34942509E+00 -0.24007000E+00 -0.12523790E+00  0.20000000E-01   21    1
  0.52526402E+00  0.39556321E+00  0.44003000E-01  0.64449100E-01  0.20000000E-01   22    1
  0.52558721E+00  0.43931832E+00  0.97868000E-01 -0.14303390E+00  0.20000000E-01   23    1
  0.52452388E+00  0.48413812E+00 -0.79353000E-01 -0.17306590E+00  0.20000000E-01   24    1
  0.56984998E+00  0.34874053E+00 -0.25004000E-01 -0.23933090E+00  0.20000000E-01   25    1
  0.57037118E+00  0.39481447E+00  0.61864000E-01 -0.60341900E-01  0.20000000E-01   26    1
  0.57087460E+00  0.44060567E+00  0.14576600E+00  0.71525100E-01  0.20000000E-01   27    1
  0.56973019E+00  0.48441931E+00 -0.44968000E-01 -0.12620190E+00  0.20000000E-01   28    1
  0.61489739E+00  0.34903853E+00 -0.17101000E-01 -0.18966490E+00  0.20000000E-01   29    1
  0.61500223E+00  0.39433407E+00  0.37200000E-03 -0.14040790E+00  0.20000000E-01   30    1
  0.61546951E+00  0.43938341E+00  0.78252000E-01 -0.13218490E+00  0.20000000E-01   31    1
  0.61478055E+00  0.48504123E+00 -0.36575000E-01 -0.22548900E-01  0.20000000E-01   32    1
  0.65969431E+00  0.35022027E+00 -0.50949000E-01  0.72921000E-02  0.20000000E-01   33    1
  0.65914015E+00  0.39500088E+00 -0.14330800E+00 -0.29272900E-01  0.20000000E-01   34    1
  0.65972050E+00  0.44019331E+00 -0.46584000E-01  0.27981000E-02  0.20000000E-01   35    1
  0.65948213E+00  0.48481965E+00 -0.86312000E-01 -0.59478900E-01  0.20000000E-01   36    1
  0.70509513E+00  0.34946037E+00  0.15855000E-01 -0.11935890E+00  0.20000000E-01   37    1
  0.70528293E+00  0.39489022E+00  0.47155000E-01 -0.47716900E-01  0.20000000E-01   38    1
  0.70549190E+00  0.43981947E+00  0.81983000E-01 -0.59507900E-01  0.20000000E-01   39    1
  0.70424995E+00  0.48481965E+00 -0.12500900E+00 -0.59477900E-01  0.20000000E-01   40    1
 VARIABLES= X1,X2,Y1,Y2,R,ID,RK
ZONE T="    8" 
SOLUTIONTIME=     0.00700000,STRANDID=   2
  0.52307944E+00  0.34915500E+00 -0.24007000E+00 -0.14485120E+00  0.20000000E-01   21    1
  0.52535202E+00  0.39567250E+00  0.44003000E-01  0.44835800E-01  0.20000000E-01   22    1
  0.52578294E+00  0.43901264E+00  0.97868000E-01 -0.16264720E+00  0.20000000E-01   23    1
  0.52436518E+00  0.48377238E+00 -0.79353000E-01 -0.19267920E+00  0.20000000E-01   24    1
  0.56979997E+00  0.34824226E+00 -0.25004000E-01 -0.25894420E+00  0.20000000E-01   25    1
  0.57049491E+00  0.39467417E+00  0.61864000E-01 -0.79955200E-01  0.20000000E-01   26    1
  0.57116613E+00  0.44072911E+00  0.14576600E+00  0.51911800E-01  0.20000000E-01   27    1
  0.56964026E+00  0.48414729E+00 -0.44968000E-01 -0.14581520E+00  0.20000000E-01   28    1
  0.61486319E+00  0.34863959E+00 -0.17101000E-01 -0.20927820E+00  0.20000000E-01   29    1
  0.61500298E+00  0.39403364E+00  0.37200000E-03 -0.16002120E+00  0.20000000E-01   30    1
  0.61562602E+00  0.43909943E+00  0.78252000E-01 -0.15179820E+00  0.20000000E-01   31    1
  0.61470740E+00  0.48497652E+00 -0.36575000E-01 -0.42162200E-01  0.20000000E-01   32    1
  0.65959241E+00  0.35021524E+00 -0.50949000E-01 -0.12321200E-01  0.20000000E-01   33    1
  0.65885354E+00  0.39492272E+00 -0.14330800E+00 -0.48886200E-01  0.20000000E-01   34    1
  0.65962733E+00  0.44017929E+00 -0.46584000E-01 -0.16815200E-01  0.20000000E-01   35    1
  0.65930950E+00  0.48468108E+00 -0.86312000E-01 -0.79092200E-01  0.20000000E-01   36    1
  0.70512684E+00  0.34920204E+00  0.15855000E-01 -0.13897220E+00  0.20000000E-01   37    1
  0.70537724E+00  0.39477517E+00  0.47155000E-01 -0.67330200E-01  0.20000000E-01   38    1
  0.70565586E+00  0.43968084E+00  0.81983000E-01 -0.79121200E-01  0.20000000E-01   39    1
  0.70399993E+00  0.48468108E+00 -0.12500900E+00 -0.79091200E-01  0.20000000E-01   40    1
 VARIABLES= X1,X2,Y1,Y2,R,ID,RK
ZONE T="   10" 
SOLUTIONTIME=     0.00900000,STRANDID=   2
  0.52259930E+00  0.34884569E+00 -0.24007000E+00 -0.16446450E+00  0.20000000E-01   21    1
  0.52544003E+00  0.39574256E+00  0.44003000E-01  0.25222500E-01  0.20000000E-01   22    1
  0.52597868E+00  0.43866773E+00  0.97868000E-01 -0.18226050E+00  0.20000000E-01   23    1
  0.52420647E+00  0.48336741E+00 -0.79353000E-01 -0.21229250E+00  0.20000000E-01   24    1
  0.56974996E+00  0.34770476E+00 -0.25004000E-01 -0.27855750E+00  0.20000000E-01   25    1
  0.57061864E+00  0.39449465E+00  0.61864000E-01 -0.99568500E-01  0.20000000E-01   26    1
  0.57145766E+00  0.44081332E+00  0.14576600E+00  0.32298500E-01  0.20000000E-01   27    1
  0.56955032E+00  0.48383605E+00 -0.44968000E-01 -0.16542850E+00  0.20000000E-01   28    1
  0.61482899E+00  0.34820142E+00 -0.17101000E-01 -0.22889150E+00  0.20000000E-01   29    1
  0.61500372E+00  0.39369399E+00  0.37200000E-03 -0.17963450E+00  0.20000000E-01   30    1
  0.61578252E+00  0.43877622E+00  0.78252000E-01 -0.17141150E+00  0.20000000E-01   31    1
  0.61463425E+00  0.48487258E+00 -0.36575000E-01 -0.61775500E-01  0.20000000E-01   32    1
  0.65949051E+00  0.35017099E+00 -0.50949000E-01 -0.31934500E-01  0.20000000E-01   33    1
  0.65856692E+00  0.39480534E+00 -0.14330800E+00 -0.68499500E-01  0.20000000E-01   34    1
  0.65953416E+00  0.44012605E+00 -0.46584000E-01 -0.36428500E-01  0.20000000E-01   35    1
  0.65913688E+00  0.48450328E+00 -0.86312000E-01 -0.98705500E-01  0.20000000E-01   36    1
  0.70515855E+00  0.34890448E+00  0.15855000E-01 -0.15858550E+00  0.20000000E-01   37    1
  0.70547155E+00  0.39462090E+00  0.47155000E-01 -0.86943500E-01  0.20000000E-01   38    1
  0.70581983E+00  0.43950299E+00  0.81983000E-01 -0.98734500E-01  0.20000000E-01   39    1
  0.70374991E+00  0.48450329E+00 -0.12500900E+00 -0.98704500E-01  0.20000000E-01   40    1
 VARIABLES= X1,X2,Y1,Y2,R,ID,RK
ZONE T="   12" 
SOLUTIONTIME=     0.01100000,STRANDID=   2
  0.52211916E+00  0.34849715E+00 -0.24007000E+00 -0.18407780E+00  0.20000000E-01   21    1
  0.52552804E+00  0.39577339E+00  0.44003000E-01  0.56092000E-02  0.20000000E-01   22    1
  0.52617442E+00  0.43828359E+00  0.97868000E-01 -0.20187380E+00  0.20000000E-01   23    1
  0.52404776E+00  0.48292321E+00 -0.79353000E-01 -0.23190580E+00  0.20000000E-01   24    1
  0.56969995E+00  0.34712803E+00 -0.25004000E-01 -0.29817080E+00  0.20000000E-01   25    1
  0.57074237E+00  0.39427590E+00  0.61864000E-01 -0.11918180E+00  0.20000000E-01   26    1
  0.57174919E+00  0.44085830E+00  0.14576600E+00  0.12685200E-01  0.20000000E-01   27    1
  0.56946038E+00  0.48348558E+00 -0.44968000E-01 -0.18504180E+00  0.20000000E-01   28    1
  0.61479479E+00  0.34772402E+00 -0.17101000E-01 -0.24850480E+00  0.20000000E-01   29    1
  0.61500446E+00  0.39331511E+00  0.37200000E-03 -0.19924780E+00  0.20000000E-01   30    1
  0.61593902E+00  0.43841378E+00  0.78252000E-01 -0.19102480E+00  0.20000000E-01   31    1
  0.61456110E+00  0.48472941E+00 -0.36575000E-01 -0.81388800E-01  0.20000000E-01   32    1
  0.65938861E+00  0.35008751E+00 -0.50949000E-01 -0.51547800E-01  0.20000000E-01   33    1
  0.65828030E+00  0.39464873E+00 -0.14330800E+00 -0.88112800E-01  0.20000000E-01   34    1
  0.65944099E+00  0.44003358E+00 -0.46584000E-01 -0.56041800E-01  0.20000000E-01   35    1
  0.65896426E+00  0.48428625E+00 -0.86312000E-01 -0.11831880E+00  0.20000000E-01   36    1
  0.70519026E+00  0.34856769E+00  0.15855000E-01 -0.17819880E+00  0.20000000E-01   37    1
  0.70556586E+00  0.39442740E+00  0.47155000E-01 -0.10655680E+00  0.20000000E-01   38    1
  0.70598380E+00  0.43928591E+00  0.81983000E-01 -0.11834780E+00  0.20000000E-01   39    1
  0.70349989E+00  0.48428627E+00 -0.12500900E+00 -0.11831780E+00  0.20000000E-01   40    1
 VARIABLES= X1,X2,Y1,Y2,R,ID,RK
ZONE T="    2" 
SOLUTIONTIME=     0.00100000,STRANDID=   3
  0.29973912E+00  0.53003843E+00 -0.13043800E+00  0.94077000E-02  0.20000000E-01   41    2
  0.29950739E+00  0.57481419E+00 -0.24630500E+00 -0.10271030E+00  0.20000000E-01   42    2
  0.30021449E+00  0.62021100E+00  0.10724600E+00  0.95692700E-01  0.20000000E-01   43    2
  0.30017275E+00  0.66529320E+00  0.86373000E-01  0.13679370E+00  0.20000000E-01   44    2
  0.29985515E+00  0.70998466E+00 -0.72427000E-01 -0.17475300E-01  0.20000000E-01   45    2
  0.30014206E+00  0.75501269E+00  0.71028000E-01 -0.34623000E-02  0.20000000E-01   46    2
  0.34532805E+00  0.52987716E+00  0.16402600E+00 -0.71225300E-01  0.20000000E-01   47    2
  0.34551407E+00  0.57526913E+00  0.25703400E+00  0.12475770E+00  0.20000000E-01   48    2
  0.34506813E+00  0.61997255E+00  0.34063000E-01 -0.23532300E-01  0.20000000E-01   49    2
  0.34519309E+00  0.66487403E+00  0.96546000E-01 -0.72790300E-01  0.20000000E-01   50    2
  0.34513594E+00  0.71024953E+00  0.67971000E-01  0.11495770E+00  0.20000000E-01   51    2
  0.34520022E+00  0.75515793E+00  0.10011200E+00  0.69156700E-01  0.20000000E-01   52    2
  0.39015122E+00  0.53008428E+00  0.75611000E-01  0.32333700E-01  0.20000000E-01   53    2
  0.39001443E+00  0.57489632E+00  0.72170000E-02 -0.61648300E-01  0.20000000E-01   54    2
  0.38981300E+00  0.62009826E+00 -0.93502000E-01  0.39322700E-01  0.20000000E-01   55    2
  0.39004974E+00  0.66509313E+00  0.24869000E-01  0.36760700E-01  0.20000000E-01   56    2
  0.39011913E+00  0.71013540E+00  0.59564000E-01  0.57894700E-01  0.20000000E-01   57    2
  0.38966437E+00  0.75498465E+00 -0.16781600E+00 -0.17480300E-01  0.20000000E-01   58    2
  0.43495513E+00  0.53041520E+00 -0.22433000E-01  0.19779570E+00  0.20000000E-01   59    2
  0.43502381E+00  0.57462264E+00  0.11905000E-01 -0.19848630E+00  0.20000000E-01   60    2
  0.43491126E+00  0.61995805E+00 -0.44371000E-01 -0.30783300E-01  0.20000000E-01   61    2
  0.43520548E+00  0.66492046E+00  0.10274100E+00 -0.49577300E-01  0.20000000E-01   62    2
  0.43527368E+00  0.70992854E+00  0.13684000E+00 -0.45536300E-01  0.20000000E-01   63    2
  0.43495035E+00  0.75481665E+00 -0.24825000E-01 -0.10148030E+00  0.20000000E-01   64    2
  0.48026569E+00  0.52987370E+00  0.13284500E+00 -0.72956300E-01  0.20000000E-01   65    2
  0.48002960E+00  0.57477067E+00  0.14799000E-01 -0.12447230E+00  0.20000000E-01   66    2
  0.48038338E+00  0.61968978E+00  0.19168900E+00 -0.16491730E+00  0.20000000E-01   67    2
  0.48000127E+00  0.66485895E+00  0.63300000E-03 -0.80332300E-01  0.20000000E-01   68    2
  0.47993457E+00  0.71015133E+00 -0.32714000E-01  0.65857700E-01  0.20000000E-01   69    2
  0.47973021E+00  0.75496267E+00 -0.13489400E+00 -0.28472300E-01  0.20000000E-01   70    2
 VARIABLES= X1,X2,Y1,Y2,R,ID,RK
ZONE T="    4" 
SOLUTIONTIME=     0.00300000,STRANDID=   3
  0.29947825E+00  0.53003763E+00 -0.13043800E+00 -0.10205600E-01  0.20000000E-01   41    2
  0.29901478E+00  0.57458916E+00 -0.24630500E+00 -0.12232360E+00  0.20000000E-01   42    2
  0.30042898E+00  0.62038277E+00  0.10724600E+00  0.76079400E-01  0.20000000E-01   43    2
  0.30034549E+00  0.66554717E+00  0.86373000E-01  0.11718040E+00  0.20000000E-01   44    2
  0.29971029E+00  0.70993010E+00 -0.72427000E-01 -0.37088600E-01  0.20000000E-01   45    2
  0.30028411E+00  0.75498615E+00  0.71028000E-01 -0.23075600E-01  0.20000000E-01   46    2
  0.34565610E+00  0.52971510E+00  0.16402600E+00 -0.90838600E-01  0.20000000E-01   47    2
  0.34602814E+00  0.57549903E+00  0.25703400E+00  0.10514440E+00  0.20000000E-01   48    2
  0.34513625E+00  0.61990587E+00  0.34063000E-01 -0.43145600E-01  0.20000000E-01   49    2
  0.34538618E+00  0.66470884E+00  0.96546000E-01 -0.92403600E-01  0.20000000E-01   50    2
  0.34527188E+00  0.71045983E+00  0.67971000E-01  0.95344400E-01  0.20000000E-01   51    2
  0.34540045E+00  0.75527663E+00  0.10011200E+00  0.49543400E-01  0.20000000E-01   52    2
  0.39030244E+00  0.53012933E+00  0.75611000E-01  0.12720400E-01  0.20000000E-01   53    2
  0.39002887E+00  0.57475341E+00  0.72170000E-02 -0.81261600E-01  0.20000000E-01   54    2
  0.38962599E+00  0.62015729E+00 -0.93502000E-01  0.19709400E-01  0.20000000E-01   55    2
  0.39009948E+00  0.66514704E+00  0.24869000E-01  0.17147400E-01  0.20000000E-01   56    2
  0.39023826E+00  0.71023158E+00  0.59564000E-01  0.38281400E-01  0.20000000E-01   57    2
  0.38932874E+00  0.75493008E+00 -0.16781600E+00 -0.37093600E-01  0.20000000E-01   58    2
  0.43491027E+00  0.53079118E+00 -0.22433000E-01  0.17818240E+00  0.20000000E-01   59    2
  0.43504762E+00  0.57420605E+00  0.11905000E-01 -0.21809960E+00  0.20000000E-01   60    2
  0.43482252E+00  0.61987687E+00 -0.44371000E-01 -0.50396600E-01  0.20000000E-01   61    2
  0.43541096E+00  0.66480169E+00  0.10274100E+00 -0.69190600E-01  0.20000000E-01   62    2
  0.43554736E+00  0.70981785E+00  0.13684000E+00 -0.65149600E-01  0.20000000E-01   63    2
  0.43490070E+00  0.75459408E+00 -0.24825000E-01 -0.12109360E+00  0.20000000E-01   64    2
  0.48053138E+00  0.52970817E+00  0.13284500E+00 -0.92569600E-01  0.20000000E-01   65    2
  0.48005920E+00  0.57450211E+00  0.14799000E-01 -0.14408560E+00  0.20000000E-01   66    2
  0.48076676E+00  0.61934033E+00  0.19168900E+00 -0.18453060E+00  0.20000000E-01   67    2
  0.48000253E+00  0.66467867E+00  0.63300000E-03 -0.99945600E-01  0.20000000E-01   68    2
  0.47986914E+00  0.71026343E+00 -0.32714000E-01  0.46244400E-01  0.20000000E-01   69    2
  0.47946042E+00  0.75488611E+00 -0.13489400E+00 -0.48085600E-01  0.20000000E-01   70    2
 VARIABLES= X1,X2,Y1,Y2,R,ID,RK
ZONE T="    6" 
SOLUTIONTIME=     0.00500000,STRANDID=   3
  0.29921737E+00  0.52999761E+00 -0.13043800E+00 -0.29818900E-01  0.20000000E-01   41    2
  0.29852217E+00  0.57432490E+00 -0.24630500E+00 -0.14193690E+00  0.20000000E-01   42    2
  0.30064348E+00  0.62051532E+00  0.10724600E+00  0.56466100E-01  0.20000000E-01   43    2
  0.30051824E+00  0.66576192E+00  0.86373000E-01  0.97567100E-01  0.20000000E-01   44    2
  0.29956544E+00  0.70983631E+00 -0.72427000E-01 -0.56701900E-01  0.20000000E-01   45    2
  0.30042617E+00  0.75492039E+00  0.71028000E-01 -0.42688900E-01  0.20000000E-01   46    2
  0.34598416E+00  0.52951381E+00  0.16402600E+00 -0.11045190E+00  0.20000000E-01   47    2
  0.34654220E+00  0.57568971E+00  0.25703400E+00  0.85531100E-01  0.20000000E-01   48    2
  0.34520438E+00  0.61979997E+00  0.34063000E-01 -0.62758900E-01  0.20000000E-01   49    2
  0.34557928E+00  0.66450442E+00  0.96546000E-01 -0.11201690E+00  0.20000000E-01   50    2
  0.34540783E+00  0.71063091E+00  0.67971000E-01  0.75731100E-01  0.20000000E-01   51    2
  0.34560067E+00  0.75535610E+00  0.10011200E+00  0.29930100E-01  0.20000000E-01   52    2
  0.39045367E+00  0.53013516E+00  0.75611000E-01 -0.68929000E-02  0.20000000E-01   53    2
  0.39004330E+00  0.57457127E+00  0.72170000E-02 -0.10087490E+00  0.20000000E-01   54    2