 VARIABLES= X1,X2,Y1,Y2,R
ZONE T="    1" 
SOLUTIONTIME=     0.00000000,STRANDID=   1
  0.299999445000000       0.499995096675000      -5.550000000000000E-004
 -9.806650000000250E-003  2.000000000000000E-002
 VARIABLES= X1,X2,Y1,Y2,R
ZONE T="    2" 
SOLUTIONTIME=     0.00100000,STRANDID=   1
  0.299998890000000       0.499980386700000      -5.550000000000000E-004
 -1.961330000000006E-002  2.000000000000000E-002
 VARIABLES= X1,X2,Y1,Y2,R
ZONE T="    3" 
SOLUTIONTIME=     0.00200000,STRANDID=   1
  0.299998335000000       0.499955870075000      -5.550000000000000E-004
 -2.941995000000031E-002  2.000000000000000E-002
 VARIABLES= X1,X2,Y1,Y2,R
ZONE T="    4" 
SOLUTIONTIME=     0.00300000,STRANDID=   1
  0.299997780000000       0.499921546800000      -5.550000000000000E-004
 -3.922660000000011E-002  2.000000000000000E-002
 VARIABLES= X1,X2,Y1,Y2,R
ZONE T="    5" 
SOLUTIONTIME=     0.00400000,STRANDID=   1
  0.299997225000000       0.499877416875000      -5.550000000000000E-004
 -4.903325000000036E-002  2.000000000000000E-002
 VARIABLES= X1,X2,Y1,Y2,R
ZONE T="    6" 
SOLUTIONTIME=     0.00500000,STRANDID=   1
  0.299996670000000       0.499823480300000      -5.550000000000000E-004
 -5.883990000000017E-002  2.000000000000000E-002
 VARIABLES= X1,X2,Y1,Y2,R
ZONE T="    7" 
SOLUTIONTIME=     0.00600000,STRANDID=   1
  0.299996115000000       0.499759737075000      -5.550000000000000E-004
 -6.864655000000042E-002  2.000000000000000E-002
 VARIABLES= X1,X2,Y1,Y2,R
ZONE T="    8" 
SOLUTIONTIME=     0.00700000,STRANDID=   1
  0.299995560000000       0.499686187200000      -5.550000000000000E-004
 -7.845320000000022E-002  2.000000000000000E-002
 VARIABLES= X1,X2,Y1,Y2,R
ZONE T="    9" 
SOLUTIONTIME=     0.00800000,STRANDID=   1
  0.299995005000000       0.499602830675000      -5.550000000000000E-004
 -8.825985000000003E-002  2.000000000000000E-002
 VARIABLES= X1,X2,Y1,Y2,R
ZONE T="   10" 
SOLUTIONTIME=     0.00900000,STRANDID=   1
  0.299994450000000       0.499509667500000      -5.550000000000000E-004
 -9.806650000000028E-002  2.000000000000000E-002
 VARIABLES= X1,X2,Y1,Y2,R
ZONE T="   11" 
SOLUTIONTIME=     0.01000000,STRANDID=   1
  0.299993895000000       0.499406697675000      -5.550000000000000E-004
 -0.107873150000000       2.000000000000000E-002
 VARIABLES= X1,X2,Y1,Y2,R
ZONE T="   12" 
SOLUTIONTIME=     0.01100000,STRANDID=   1
  0.299993340000000       0.499293921200000      -5.550000000000000E-004
 -0.117679800000000       2.000000000000000E-002
 VARIABLES= X1,X2,Y1,Y2,R
ZONE T="   13" 
SOLUTIONTIME=     0.01200000,STRANDID=   1
  0.299992785000000       0.499171338075000      -5.550000000000000E-004
 -0.127486450000000       2.000000000000000E-002
 VARIABLES= X1,X2,Y1,Y2,R
ZONE T="   14" 
SOLUTIONTIME=     0.01300000,STRANDID=   1
  0.299992230000000       0.499038948300000      -5.550000000000000E-004
 -0.137293100000000       2.000000000000000E-002
 VARIABLES= X1,X2,Y1,Y2,R
ZONE T="   15" 
SOLUTIONTIME=     0.01400000,STRANDID=   1
  0.299991675000000       0.498896751875000      -5.550000000000000E-004
 -0.147099750000000       2.000000000000000E-002
 VARIABLES= X1,X2,Y1,Y2,R
ZONE T="   16" 
SOLUTIONTIME=     0.01500000,STRANDID=   1
  0.299991120000000       0.498744748800000      -5.550000000000000E-004
 -0.156906400000000       2.000000000000000E-002
 VARIABLES= X1,X2,Y1,Y2,R
ZONE T="   17" 
SOLUTIONTIME=     0.01600000,STRANDID=   1
  0.299990565000000       0.498582939075000      -5.550000000000000E-004
 -0.166713050000000       2.000000000000000E-002
 VARIABLES= X1,X2,Y1,Y2,R
ZONE T="   18" 
SOLUTIONTIME=     0.01700000,STRANDID=   1
  0.299990010000000       0.498411322700000      -5.550000000000000E-004
 -0.176519700000001       2.000000000000000E-002
 VARIABLES= X1,X2,Y1,Y2,R
ZONE T="   19" 
SOLUTIONTIME=     0.01800000,STRANDID=   1
  0.299989455000000       0.498229899675000      -5.550000000000000E-004
 -0.186326350000000       2.000000000000000E-002
 VARIABLES= X1,X2,Y1,Y2,R
ZONE T="   20" 
SOLUTIONTIME=     0.01900000,STRANDID=   1
  0.299988900000000       0.498038670000000      -5.550000000000000E-004
 -0.196133000000000       2.000000000000000E-002
 VARIABLES= X1,X2,Y1,Y2,R
ZONE T="   21" 
SOLUTIONTIME=     0.02000000,STRANDID=   1
  0.299988345000000       0.497837633675000      -5.550000000000000E-004
 -0.205939650000000       2.000000000000000E-002
 VARIABLES= X1,X2,Y1,Y2,R
ZONE T="   22" 
SOLUTIONTIME=     0.02100000,STRANDID=   1
  0.299987790000000       0.497626790700000      -5.550000000000000E-004
 -0.215746300000000       2.000000000000000E-002
 VARIABLES= X1,X2,Y1,Y2,R
ZONE T="   23" 
SOLUTIONTIME=     0.02200000,STRANDID=   1
  0.299987235000000       0.497406141075000      -5.550000000000000E-004
 -0.225552950000000       2.000000000000000E-002
 VARIABLES= X1,X2,Y1,Y2,R
ZONE T="   24" 
SOLUTIONTIME=     0.02300000,STRANDID=   1
  0.299986680000000       0.497175684800000      -5.550000000000000E-004
 -0.235359600000000       2.000000000000000E-002
 VARIABLES= X1,X2,Y1,Y2,R
ZONE T="   25" 
SOLUTIONTIME=     0.02400000,STRANDID=   1
  0.299986125000000       0.496935421875000      -5.550000000000000E-004
 -0.245166250000000       2.000000000000000E-002
 VARIABLES= X1,X2,Y1,Y2,R
ZONE T="   26" 
SOLUTIONTIME=     0.02500000,STRANDID=   1
  0.299985570000000       0.496685352300000      -5.550000000000000E-004
 -0.254972900000000       2.000000000000000E-002
 VARIABLES= X1,X2,Y1,Y2,R
ZONE T="   27" 
SOLUTIONTIME=     0.02600000,STRANDID=   1
  0.299985015000000       0.496425476075000      -5.550000000000000E-004
 -0.264779550000001       2.000000000000000E-002
 VARIABLES= X1,X2,Y1,Y2,R
ZONE T="   28" 
SOLUTIONTIME=     0.02700000,STRANDID=   1
  0.299984460000000       0.496155793200000      -5.550000000000000E-004
 -0.274586200000000       2.000000000000000E-002
 VARIABLES= X1,X2,Y1,Y2,R
ZONE T="   29" 
SOLUTIONTIME=     0.02800000,STRANDID=   1
  0.299983905000000       0.495876303675000      -5.550000000000000E-004
 -0.284392850000001       2.000000000000000E-002
 VARIABLES= X1,X2,Y1,Y2,R
ZONE T="   30" 
SOLUTIONTIME=     0.02900000,STRANDID=   1
  0.299983350000000       0.495587007500000      -5.550000000000000E-004
 -0.294199500000000       2.000000000000000E-002
 VARIABLES= X1,X2,Y1,Y2,R
ZONE T="   31" 
SOLUTIONTIME=     0.03000000,STRANDID=   1
  0.299982795000000       0.495287904675000      -5.550000000000000E-004
 -0.304006150000000       2.000000000000000E-002
 VARIABLES= X1,X2,Y1,Y2,R
ZONE T="   32" 
SOLUTIONTIME=     0.03100000,STRANDID=   1
  0.299982240000000       0.494978995200000      -5.550000000000000E-004
 -0.313812800000000       2.000000000000000E-002
 VARIABLES= X1,X2,Y1,Y2,R
ZONE T="   33" 
SOLUTIONTIME=     0.03200000,STRANDID=   1
  0.299981685000000       0.494660279075000      -5.550000000000000E-004
 -0.323619450000000       2.000000000000000E-002
 VARIABLES= X1,X2,Y1,Y2,R
ZONE T="   34" 
SOLUTIONTIME=     0.03300000,STRANDID=   1
  0.299981130000000       0.494331756300000      -5.550000000000000E-004
 -0.333426100000001       2.000000000000000E-002
 VARIABLES= X1,X2,Y1,Y2,R
ZONE T="   35" 
SOLUTIONTIME=     0.03400000,STRANDID=   1
  0.299980575000000       0.493993426875000      -5.550000000000000E-004
 -0.343232750000000       2.000000000000000E-002
 VARIABLES= X1,X2,Y1,Y2,R
ZONE T="   36" 
SOLUTIONTIME=     0.03500000,STRANDID=   1
  0.299980020000000       0.493645290800000      -5.550000000000000E-004
 -0.353039400000001       2.000000000000000E-002
 VARIABLES= X1,X2,Y1,Y2,R
ZONE T="   37" 
SOLUTIONTIME=     0.03600000,STRANDID=   1
  0.299979465000000       0.493287348075000      -5.550000000000000E-004
 -0.362846050000000       2.000000000000000E-002
 VARIABLES= X1,X2,Y1,Y2,R
ZONE T="   38" 
SOLUTIONTIME=     0.03700000,STRANDID=   1
  0.299978909999999       0.492919598700000      -5.550000000000000E-004
 -0.372652700000001       2.000000000000000E-002
 VARIABLES= X1,X2,Y1,Y2,R
ZONE T="   39" 
SOLUTIONTIME=     0.03800000,STRANDID=   1
  0.299978354999999       0.492542042675000      -5.550000000000000E-004
 -0.382459350000000       2.000000000000000E-002
 VARIABLES= X1,X2,Y1,Y2,R
ZONE T="   40" 
SOLUTIONTIME=     0.03900000,STRANDID=   1
  0.299977799999999       0.492154680000000      -5.550000000000000E-004
 -0.392266000000001       2.000000000000000E-002
 VARIABLES= X1,X2,Y1,Y2,R
ZONE T="   41" 
SOLUTIONTIME=     0.04000000,STRANDID=   1
  0.299977244999999       0.491757510675000      -5.550000000000000E-004
 -0.402072650000000       2.000000000000000E-002
 VARIABLES= X1,X2,Y1,Y2,R
ZONE T="   42" 
SOLUTIONTIME=     0.04100000,STRANDID=   1
  0.299976689999999       0.491350534700000      -5.550000000000000E-004
 -0.411879300000000       2.000000000000000E-002
 VARIABLES= X1,X2,Y1,Y2,R
ZONE T="   43" 
SOLUTIONTIME=     0.04200000,STRANDID=   1
  0.299976134999999       0.490933752075000      -5.550000000000000E-004
 -0.421685950000001       2.000000000000000E-002
 VARIABLES= X1,X2,Y1,Y2,R
ZONE T="   44" 
SOLUTIONTIME=     0.04300000,STRANDID=   1
  0.299975579999999       0.490507162800000      -5.550000000000000E-004
 -0.431492600000000       2.000000000000000E-002
 VARIABLES= X1,X2,Y1,Y2,R
ZONE T="   45" 
SOLUTIONTIME=     0.04400000,STRANDID=   1
  0.299975024999999       0.490070766875000      -5.550000000000000E-004
 -0.441299250000001       2.000000000000000E-002
 VARIABLES= X1,X2,Y1,Y2,R
ZONE T="   46" 
SOLUTIONTIME=     0.04500000,STRANDID=   1
  0.299974469999999       0.489624564300000      -5.550000000000000E-004
 -0.451105900000000       2.000000000000000E-002
 VARIABLES= X1,X2,Y1,Y2,R
ZONE T="   47" 
SOLUTIONTIME=     0.04600000,STRANDID=   1
  0.299974249610599       0.489168555075000       1.142211993460394E-004
 -0.460912550000001       2.000000000000000E-002
 VARIABLES= X1,X2,Y1,Y2,R
ZONE T="   48" 
SOLUTIONTIME=     0.04700000,STRANDID=   1
  0.299974363831798       0.488702739200000       1.142211993460394E-004
 -0.470719200000000       2.000000000000000E-002
 VARIABLES= X1,X2,Y1,Y2,R
ZONE T="   49" 
SOLUTIONTIME=     0.04800000,STRANDID=   1
  0.299974478052998       0.488227116675000       1.142211993460394E-004
 -0.480525850000001       2.000000000000000E-002
 VARIABLES= X1,X2,Y1,Y2,R
ZONE T="   50" 
SOLUTIONTIME=     0.04900000,STRANDID=   1
  0.299974592274197       0.487741687500000       1.142211993460394E-004
 -0.490332500000001       2.000000000000000E-002
 VARIABLES= X1,X2,Y1,Y2,R
ZONE T="   51" 
SOLUTIONTIME=     0.05000000,STRANDID=   1
  0.299974706495396       0.487246451675000       1.142211993460394E-004
 -0.500139150000001       2.000000000000000E-002
 VARIABLES= X1,X2,Y1,Y2,R
ZONE T="   52" 
SOLUTIONTIME=     0.05100000,STRANDID=   1
  0.299974820716596       0.486741409200000       1.142211993460394E-004
 -0.509945800000001       2.000000000000000E-002
 VARIABLES= X1,X2,Y1,Y2,R
ZONE T="   53" 
SOLUTIONTIME=     0.05200000,STRANDID=   1
  0.299974934937795       0.486226560075000       1.142211993460394E-004
 -0.519752450000001       2.000000000000000E-002
 VARIABLES= X1,X2,Y1,Y2,R
ZONE T="   54" 
SOLUTIONTIME=     0.05300000,STRANDID=   1
  0.299975049158994       0.485701904300000       1.142211993460394E-004
 -0.529559100000001       2.000000000000000E-002
 VARIABLES= X1,X2,Y1,Y2,R
ZONE T="   55" 
SOLUTIONTIME=     0.05400000,STRANDID=   1
  0.299975163380194       0.485167441875000       1.142211993460394E-004
 -0.539365750000000       2.000000000000000E-002
 VARIABLES= X1,X2,Y1,Y2,R
ZONE T="   56" 
SOLUTIONTIME=     0.05500000,STRANDID=   1
  0.299975277601393       0.484623172800000       1.142211993460394E-004
 -0.549172400000001       2.000000000000000E-002
 VARIABLES= X1,X2,Y1,Y2,R
ZONE T="   57" 
SOLUTIONTIME=     0.05600000,STRANDID=   1
  0.299975391822592       0.484069097075000       1.142211993460394E-004
 -0.558979050000000       2.000000000000000E-002
 VARIABLES= X1,X2,Y1,Y2,R
ZONE T="   58" 
SOLUTIONTIME=     0.05700000,STRANDID=   1
  0.299975506043792       0.483505214700000       1.142211993460394E-004
 -0.568785700000001       2.000000000000000E-002
 VARIABLES= X1,X2,Y1,Y2,R
ZONE T="   59" 
SOLUTIONTIME=     0.05800000,STRANDID=   1
  0.299975620264991       0.482931525675000       1.142211993460394E-004
 -0.578592350000001       2.000000000000000E-002
 VARIABLES= X1,X2,Y1,Y2,R
ZONE T="   60" 
SOLUTIONTIME=     0.05900000,STRANDID=   1
  0.299975734486190       0.482348030000000       1.142211993460394E-004
 -0.588399000000001       2.000000000000000E-002
 VARIABLES= X1,X2,Y1,Y2,R
ZONE T="   61" 
SOLUTIONTIME=     0.06000000,STRANDID=   1
  0.299975848707390       0.481754727675000       1.142211993460394E-004
 -0.598205650000001       2.000000000000000E-002
 VARIABLES= X1,X2,Y1,Y2,R
ZONE T="   62" 
SOLUTIONTIME=     0.06100000,STRANDID=   1
  0.299975962928589       0.481151618700000       1.142211993460394E-004
 -0.608012300000001       2.000000000000000E-002
 VARIABLES= X1,X2,Y1,Y2,R
ZONE T="   63" 
SOLUTIONTIME=     0.06200000,STRANDID=   1
  0.299976077149788       0.480538703075000       1.142211993460394E-004
 -0.617818950000001       2.000000000000000E-002
 VARIABLES= X1,X2,Y1,Y2,R
ZONE T="   64" 
SOLUTIONTIME=     0.06300000,STRANDID=   1
  0.299976191370988       0.479915980800000       1.142211993460394E-004
 -0.627625600000001       2.000000000000000E-002
 VARIABLES= X1,X2,Y1,Y2,R
ZONE T="   65" 
SOLUTIONTIME=     0.06400000,STRANDID=   1
  0.299976305592187       0.479283451875000       1.142211993460394E-004
 -0.637432250000001       2.000000000000000E-002
 VARIABLES= X1,X2,Y1,Y2,R
ZONE T="   66" 
SOLUTIONTIME=     0.06500000,STRANDID=   1
  0.299976419813386       0.478641116300000       1.142211993460394E-004
 -0.647238900000001       2.000000000000000E-002
 VARIABLES= X1,X2,Y1,Y2,R
ZONE T="   67" 
SOLUTIONTIME=     0.06600000,STRANDID=   1
  0.299976534034586       0.477988974075000       1.142211993460394E-004
 -0.657045550000001       2.000000000000000E-002
 VARIABLES= X1,X2,Y1,Y2,R
ZONE T="   68" 
SOLUTIONTIME=     0.06700000,STRANDID=   1
  0.299976648255785       0.477327025200000       1.142211993460394E-004
 -0.666852200000001       2.000000000000000E-002
 VARIABLES= X1,X2,Y1,Y2,R
ZONE T="   69" 
SOLUTIONTIME=     0.06800000,STRANDID=   1
  0.299976762476984       0.476655269675000       1.142211993460394E-004
 -0.676658850000001       2.000000000000000E-002
 VARIABLES= X1,X2,Y1,Y2,R
ZONE T="   70" 
SOLUTIONTIME=     0.06900000,STRANDID=   1
  0.299976876698184       0.475973707500000       1.142211993460394E-004
 -0.686465500000001       2.000000000000000E-002
 VARIABLES= X1,X2,Y1,Y2,R
ZONE T="   71" 
SOLUTIONTIME=     0.07000000,STRANDID=   1
  0.299976990919383       0.475282338675000       1.142211993460394E-004
 -0.696272150000001       2.000000000000000E-002
 VARIABLES= X1,X2,Y1,Y2,R
ZONE T="   72" 
SOLUTIONTIME=     0.07100000,STRANDID=   1
  0.299977105140582       0.474581163200000       1.142211993460394E-004
 -0.706078800000001       2.000000000000000E-002
 VARIABLES= X1,X2,Y1,Y2,R
ZONE T="   73" 
SOLUTIONTIME=     0.07200000,STRANDID=   1
  0.299977219361782       0.473870181075000       1.142211993460394E-004
 -0.715885450000001       2.000000000000000E-002
 VARIABLES= X1,X2,Y1,Y2,R
ZONE T="   74" 
SOLUTIONTIME=     0.07300000,STRANDID=   1
  0.299977333582981       0.473149392300000       1.142211993460394E-004
 -0.725692100000001       2.000000000000000E-002
 VARIABLES= X1,X2,Y1,Y2,R
ZONE T="   75" 
SOLUTIONTIME=     0.07400000,STRANDID=   1
  0.299977447804180       0.472418796875000       1.142211993460394E-004
 -0.735498750000001       2.000000000000000E-002
 VARIABLES= X1,X2,Y1,Y2,R
ZONE T="   76" 
SOLUTIONTIME=     0.07500000,STRANDID=   1
  0.299977562025380       0.471678394800000       1.142211993460394E-004
 -0.745305400000001       2.000000000000000E-002
 VARIABLES= X1,X2,Y1,Y2,R
ZONE T="   77" 
SOLUTIONTIME=     0.07600000,STRANDID=   1
  0.299977676246579       0.470928186075000       1.142211993460394E-004
 -0.755112050000001       2.000000000000000E-002
 VARIABLES= X1,X2,Y1,Y2,R
ZONE T="   78" 
SOLUTIONTIME=     0.07700000,STRANDID=   1
  0.299977790467778       0.470168170700000       1.142211993460394E-004
 -0.764918700000001       2.000000000000000E-002
 VARIABLES= X1,X2,Y1,Y2,R
ZONE T="   79" 
SOLUTIONTIME=     0.07800000,STRANDID=   1
  0.299977904688978       0.469398348675000       1.142211993460394E-004
 -0.774725350000001       2.000000000000000E-002
 VARIABLES= X1,X2,Y1,Y2,R
ZONE T="   80" 
SOLUTIONTIME=     0.07900000,STRANDID=   1
  0.299978018910177       0.468618720000000       1.142211993460394E-004
 -0.784532000000001       2.000000000000000E-002
 VARIABLES= X1,X2,Y1,Y2,R
ZONE T="   81" 
SOLUTIONTIME=     0.08000000,STRANDID=   1
  0.299978133131376       0.467829284675000       1.142211993460394E-004
 -0.794338650000001       2.000000000000000E-002
 VARIABLES= X1,X2,Y1,Y2,R
ZONE T="   82" 
SOLUTIONTIME=     0.08100000,STRANDID=   1
  0.299978247352576       0.467030042700000       1.142211993460394E-004
 -0.804145300000001       2.000000000000000E-002
 VARIABLES= X1,X2,Y1,Y2,R
ZONE T="   83" 
SOLUTIONTIME=     0.08200000,STRANDID=   1
  0.299978361573775       0.466220994075000       1.142211993460394E-004
 -0.813951950000001       2.000000000000000E-002
 VARIABLES= X1,X2,Y1,Y2,R
ZONE T="   84" 
SOLUTIONTIME=     0.08300000,STRANDID=   1
  0.299978475794974       0.465402138800000       1.142211993460394E-004
 -0.823758600000001       2.000000000000000E-002
 VARIABLES= X1,X2,Y1,Y2,R
ZONE T="   85" 
SOLUTIONTIME=     0.08400000,STRANDID=   1
  0.299978590016174       0.464573476875000       1.142211993460394E-004
 -0.833565250000001       2.000000000000000E-002
 VARIABLES= X1,X2,Y1,Y2,R
ZONE T="   86" 
SOLUTIONTIME=     0.08500000,STRANDID=   1
  0.299978704237373       0.463735008300000       1.142211993460394E-004
 -0.843371900000001       2.000000000000000E-002
 VARIABLES= X1,X2,Y1,Y2,R
ZONE T="   87" 
SOLUTIONTIME=     0.08600000,STRANDID=   1
  0.299978818458572       0.462886733075000       1.142211993460394E-004
 -0.853178550000001       2.000000000000000E-002
 VARIABLES= X1,X2,Y1,Y2,R
ZONE T="   88" 
SOLUTIONTIME=     0.08700000,STRANDID=   1
  0.299978932679772       0.462028651200000       1.142211993460394E-004
 -0.862985200000001       2.000000000000000E-002
 VARIABLES= X1,X2,Y1,Y2,R
ZONE T="   89" 
SOLUTIONTIME=     0.08800000,STRANDID=   1
  0.299979046900971       0.461160762675000       1.142211993460394E-004
 -0.872791850000001       2.000000000000000E-002
 VARIABLES= X1,X2,Y1,Y2,R
ZONE T="   90" 
SOLUTIONTIME=     0.08900000,STRANDID=   1
  0.299979161122170       0.460283067500000       1.142211993460394E-004
 -0.882598500000001       2.000000000000000E-002
 VARIABLES= X1,X2,Y1,Y2,R
ZONE T="   91" 
SOLUTIONTIME=     0.09000000,STRANDID=   1
  0.299979275343370       0.459395565675000       1.142211993460394E-004
 -0.892405150000001       2.000000000000000E-002
 VARIABLES= X1,X2,Y1,Y2,R
ZONE T="   92" 
SOLUTIONTIME=     0.09100000,STRANDID=   1
  0.299979389564569       0.458498257200000       1.142211993460394E-004
 -0.902211800000001       2.000000000000000E-002
 VARIABLES= X1,X2,Y1,Y2,R
ZONE T="   93" 
SOLUTIONTIME=     0.09200000,STRANDID=   1
  0.299979503785768       0.457591142075000       1.142211993460394E-004
 -0.912018450000001       2.000000000000000E-002
 VARIABLES= X1,X2,Y1,Y2,R
ZONE T="   94" 
SOLUTIONTIME=     0.09300000,STRANDID=   1
  0.299979618006968       0.456674220300000       1.142211993460394E-004
 -0.921825100000001       2.000000000000000E-002
 VARIABLES= X1,X2,Y1,Y2,R
ZONE T="   95" 
SOLUTIONTIME=     0.09400000,STRANDID=   1
  0.299979732228167       0.455747491875000       1.142211993460394E-004
 -0.931631750000001       2.000000000000000E-002
 VARIABLES= X1,X2,Y1,Y2,R
ZONE T="   96" 
SOLUTIONTIME=     0.09500000,STRANDID=   1
  0.299979846449366       0.454810956800000       1.142211993460394E-004
 -0.941438400000001       2.000000000000000E-002
 VARIABLES= X1,X2,Y1,Y2,R
ZONE T="   97" 
SOLUTIONTIME=     0.09600000,STRANDID=   1
  0.299979960670566       0.453864615075000       1.142211993460394E-004
 -0.951245050000001       2.000000000000000E-002
 VARIABLES= X1,X2,Y1,Y2,R
ZONE T="   98" 
SOLUTIONTIME=     0.09700000,STRANDID=   1
  0.299980074891765       0.452908466700000       1.142211993460394E-004
 -0.961051700000001       2.000000000000000E-002
 VARIABLES= X1,X2,Y1,Y2,R
ZONE T="   99" 
SOLUTIONTIME=     0.09800000,STRANDID=   1
  0.299980189112964       0.451942511675000       1.142211993460394E-004
 -0.970858350000001       2.000000000000000E-002
 VARIABLES= X1,X2,Y1,Y2,R
ZONE T="  100" 
SOLUTIONTIME=     0.09900000,STRANDID=   1
  0.299980303334164       0.450966750000000       1.142211993460394E-004
 -0.980665000000001       2.000000000000000E-002
 VARIABLES= X1,X2,Y1,Y2,R
ZONE T="  101" 
SOLUTIONTIME=     0.10000000,STRANDID=   1
  0.299980417555363       0.449981181675000       1.142211993460394E-004
 -0.990471650000001       2.000000000000000E-002
 VARIABLES= X1,X2,Y1,Y2,R
ZONE T="  102" 
SOLUTIONTIME=     0.10100000,STRANDID=   1
  0.299980531776562       0.448985806700000       1.142211993460394E-004
  -1.00027830000000       2.000000000000000E-002
 VARIABLES= X1,X2,Y1,Y2,R
ZONE T="  103" 
SOLUTIONTIME=     0.10200000,STRANDID=   1
  0.299980645997762       0.447980625075000       1.142211993460394E-004
  -1.01008495000000       2.000000000000000E-002
 VARIABLES= X1,X2,Y1,Y2,R
ZONE T="  104" 
SOLUTIONTIME=     0.10300000,STRANDID=   1
  0.299980760218961       0.446965636800000       1.142211993460394E-004
  -1.01989160000000       2.000000000000000E-002
 VARIABLES= X1,X2,Y1,Y2,R
ZONE T="  105" 
SOLUTIONTIME=     0.10400000,STRANDID=   1
  0.299980874440160       0.445940841875000       1.142211993460394E-004
  -1.02969825000000       2.000000000000000E-002
 VARIABLES= X1,X2,Y1,Y2,R
ZONE T="  106" 
SOLUTIONTIME=     0.10500000,STRANDID=   1
  0.299980988661360       0.444906240300000       1.142211993460394E-004
  -1.03950490000000       2.000000000000000E-002
 VARIABLES= X1,X2,Y1,Y2,R
ZONE T="  107" 
SOLUTIONTIME=     0.10600000,STRANDID=   1
  0.299981102882559       0.443861832075000       1.142211993460394E-004
  -1.04931155000000       2.000000000000000E-002
 VARIABLES= X1,X2,Y1,Y2,R
ZONE T="  108" 
SOLUTIONTIME=     0.10700000,STRANDID=   1
  0.299981217103758       0.442807617200000       1.142211993460394E-004
  -1.05911820000000       2.000000000000000E-002
 VARIABLES= X1,X2,Y1,Y2,R
ZONE T="  109" 
SOLUTIONTIME=     0.10800000,STRANDID=   1
  0.299981331324958       0.441743595675000       1.142211993460394E-004
  -1.06892485000000       2.000000000000000E-002
 VARIABLES= X1,X2,Y1,Y2,R
ZONE T="  110" 
SOLUTIONTIME=     0.10900000,STRANDID=   1
  0.299981445546157       0.440669767500000       1.142211993460394E-004
  -1.07873150000000       2.000000000000000E-002
 VARIABLES= X1,X2,Y1,Y2,R
ZONE T="  111" 
SOLUTIONTIME=     0.11000000,STRANDID=   1
  0.299981559767356       0.439586132675000       1.142211993460394E-004
  -1.08853815000000       2.000000000000000E-002
 VARIABLES= X1,X2,Y1,Y2,R
ZONE T="  112" 
SOLUTIONTIME=     0.11100000,STRANDID=   1
  0.299981673988556       0.438492691200000       1.142211993460394E-004
  -1.09834480000000       2.000000000000000E-002
 VARIABLES= X1,X2,Y1,Y2,R
ZONE T="  113" 
SOLUTIONTIME=     0.11200000,STRANDID=   1
  0.299872739282709       0.437389443075000      -0.217983632891905     
  -1.10815145000000       2.000000000000000E-002
 VARIABLES= X1,X2,Y1,Y2,R
ZONE T="  114" 
SOLUTIONTIME=     0.11300000,STRANDID=   1
  0.299654755649817       0.436276388300000      -0.217983632891905     
  -1.11795810000000       2.000000000000000E-002
 VARIABLES= X1,X2,Y1,Y2,R
ZONE T="  115" 
SOLUTIONTIME=     0.11400000,STRANDID=   1
  0.299436772016926       0.435153526875000      -0.217983632891905     
  -1.12776475000000       2.000000000000000E-002
 VARIABLES= X1,X2,Y1,Y2,R
ZONE T="  116" 
SOLUTIONTIME=     0.11500000,STRANDID=   1
  0.299218788384034       0.434020858800000      -0.217983632891905     
  -1.13757140000000       2.000000000000000E-002
 VARIABLES= X1,X2,Y1,Y2,R
ZONE T="  117" 
SOLUTIONTIME=     0.11600000,STRANDID=   1
  0.299000804751142       0.432878384075000      -0.217983632891905     
  -1.14737805000000       2.000000000000000E-002
 VARIABLES= X1,X2,Y1,Y2,R
ZONE T="  118" 
SOLUTIONTIME=     0.11700000,STRANDID=   1
  0.298782821118250       0.431726102700000      -0.217983632891905     
  -1.15718470000000       2.000000000000000E-002
 VARIABLES= X1,X2,Y1,Y2,R
ZONE T="  119" 
SOLUTIONTIME=     0.11800000,STRANDID=   1
  0.298564837485358       0.430564014675000      -0.217983632891905     
  -1.16699135000000       2.000000000000000E-002
 VARIABLES= X1,X2,Y1,Y2,R
ZONE T="  120" 
SOLUTIONTIME=     0.11900000,STRANDID=   1
  0.298346853852466       0.429392120000000      -0.217983632891905     
  -1.17679800000000       2.000000000000000E-002
 VARIABLES= X1,X2,Y1,Y2,R
ZONE T="  121" 
SOLUTIONTIME=     0.12000000,STRANDID=   1
  0.298128870219574       0.428210418675000      -0.217983632891905     
  -1.18660465000000       2.000000000000000E-002
 VARIABLES= X1,X2,Y1,Y2,R
ZONE T="  122" 
SOLUTIONTIME=     0.12100000,STRANDID=   1
  0.297910886586682       0.427018910700000      -0.217983632891905     
  -1.19641130000000       2.000000000000000E-002
 VARIABLES= X1,X2,Y1,Y2,R
ZONE T="  123" 
SOLUTIONTIME=     0.12200000,STRANDID=   1
  0.297692902953791       0.425817596075000      -0.217983632891905     
  -1.20621795000000       2.000000000000000E-002
 VARIABLES= X1,X2,Y1,Y2,R
ZONE T="  124" 
SOLUTIONTIME=     0.12300000,STRANDID=   1
  0.297474919320899       0.424606474800000      -0.217983632891905     
  -1.21602460000000       2.000000000000000E-002
 VARIABLES= X1,X2,Y1,Y2,R
ZONE T="  125" 
SOLUTIONTIME=     0.12400000,STRANDID=   1
  0.297256935688007       0.423385546875000      -0.217983632891905     
  -1.22583125000000       2.000000000000000E-002
 VARIABLES= X1,X2,Y1,Y2,R
ZONE T="  126" 
SOLUTIONTIME=     0.12500000,STRANDID=   1
  0.297038952055115       0.422154812300000      -0.217983632891905     
  -1.23563790000000       2.000000000000000E-002
 VARIABLES= X1,X2,Y1,Y2,R
ZONE T="  127" 
SOLUTIONTIME=     0.12600000,STRANDID=   1
  0.296820968422223       0.420914271075000      -0.217983632891905     
  -1.24544455000000       2.000000000000000E-002
 VARIABLES= X1,X2,Y1,Y2,R
ZONE T="  128" 
SOLUTIONTIME=     0.12700000,STRANDID=   1
  0.296602984789331       0.419663923200000      -0.217983632891905     
  -1.25525120000000       2.000000000000000E-002
 VARIABLES= X1,X2,Y1,Y2,R
ZONE T="  129" 
SOLUTIONTIME=     0.12800000,STRANDID=   1
  0.296385001156439       0.418403768675000      -0.217983632891905     
  -1.26505785000000       2.000000000000000E-002
 VARIABLES= X1,X2,Y1,Y2,R
ZONE T="  130" 
SOLUTIONTIME=     0.12900000,STRANDID=   1
  0.296167017523547       0.417133807500000      -0.217983632891905     
  -1.27486450000000       2.000000000000000E-002
 VARIABLES= X1,X2,Y1,Y2,R
ZONE T="  131" 
SOLUTIONTIME=     0.13000000,STRANDID=   1
  0.295949033890655       0.415854039675000      -0.217983632891905     
  -1.28467115000000       2.000000000000000E-002
 VARIABLES= X1,X2,Y1,Y2,R
ZONE T="  132" 
SOLUTIONTIME=     0.13100000,STRANDID=   1
  0.295731050257764       0.414564465200000      -0.217983632891905     
  -1.29447780000000       2.000000000000000E-002
 VARIABLES= X1,X2,Y1,Y2,R
ZONE T="  133" 
SOLUTIONTIME=     0.13200000,STRANDID=   1
  0.295513066624872       0.413265084075000      -0.217983632891905     
  -1.30428445000000       2.000000000000000E-002
 VARIABLES= X1,X2,Y1,Y2,R
ZONE T="  134" 
SOLUTIONTIME=     0.13300000,STRANDID=   1
  0.295295082991980       0.411955896300000      -0.217983632891905     
  -1.31409110000000       2.000000000000000E-002
 VARIABLES= X1,X2,Y1,Y2,R
ZONE T="  135" 
SOLUTIONTIME=     0.13400000,STRANDID=   1
  0.295077099359088       0.410636901875000      -0.217983632891905     
  -1.32389775000000       2.000000000000000E-002
 VARIABLES= X1,X2,Y1,Y2,R
ZONE T="  136" 
SOLUTIONTIME=     0.13500000,STRANDID=   1
  0.294859115726196       0.409308100800000      -0.217983632891905     
  -1.33370440000000       2.000000000000000E-002
 VARIABLES= X1,X2,Y1,Y2,R
ZONE T="  137" 
SOLUTIONTIME=     0.13600000,STRANDID=   1
  0.294641132093304       0.407969493075000      -0.217983632891905     
  -1.34351105000000       2.000000000000000E-002
 VARIABLES= X1,X2,Y1,Y2,R
ZONE T="  138" 
SOLUTIONTIME=     0.13700000,STRANDID=   1
  0.294423148460412       0.406621078700000      -0.217983632891905     
  -1.35331770000000       2.000000000000000E-002
 VARIABLES= X1,X2,Y1,Y2,R
ZONE T="  139" 
SOLUTIONTIME=     0.13800000,STRANDID=   1
  0.294205164827520       0.405262857675000      -0.217983632891905     
  -1.36312435000000       2.000000000000000E-002
 VARIABLES= X1,X2,Y1,Y2,R
ZONE T="  140" 
SOLUTIONTIME=     0.13900000,STRANDID=   1
  0.293987181194629       0.403894830000000      -0.217983632891905     
  -1.37293100000000       2.000000000000000E-002
 VARIABLES= X1,X2,Y1,Y2,R
ZONE T="  141" 
SOLUTIONTIME=     0.14000000,STRANDID=   1
  0.293769197561737       0.402516995675000      -0.217983632891905     
  -1.38273765000000       2.000000000000000E-002
 VARIABLES= X1,X2,Y1,Y2,R
ZONE T="  142" 
SOLUTIONTIME=     0.14100000,STRANDID=   1
  0.293551213928845       0.401129354700000      -0.217983632891905     
  -1.39254430000000       2.000000000000000E-002
 VARIABLES= X1,X2,Y1,Y2,R
ZONE T="  143" 
SOLUTIONTIME=     0.14200000,STRANDID=   1
  0.293333230295953       0.399731907075000      -0.217983632891905     
  -1.40235095000000       2.000000000000000E-002
 VARIABLES= X1,X2,Y1,Y2,R
ZONE T="  144" 
SOLUTIONTIME=     0.14300000,STRANDID=   1
  0.293115246663061       0.398324652800000      -0.217983632891905     
  -1.41215760000000       2.000000000000000E-002
 VARIABLES= X1,X2,Y1,Y2,R
ZONE T="  145" 
SOLUTIONTIME=     0.14400000,STRANDID=   1
  0.292897263030169       0.396907591875000      -0.217983632891905     