 VARIABLES= X1,X2,Y1,Y2,R,ID,RK
ZONE T="    2" 
SOLUTIONTIME=     0.00100000,STRANDID=   1
  0.29999889E+00  0.35000021E+00 -0.55500000E-03 -0.47973000E-02  0.20000000E-01    1    0
  0.29998820E+00  0.39478481E+00 -0.59010000E-02 -0.11249630E+00  0.20000000E-01    2    0
  0.29991006E+00  0.43999200E+00 -0.44969000E-01 -0.89023000E-02  0.20000000E-01    3    0
  0.29986178E+00  0.48474980E+00 -0.69111000E-01 -0.13000230E+00  0.20000000E-01    4    0
  0.29973912E+00  0.53002862E+00 -0.13043800E+00  0.94077000E-02  0.20000000E-01    5    0
  0.29950739E+00  0.57480439E+00 -0.24630500E+00 -0.10271030E+00  0.20000000E-01    6    0
  0.30021449E+00  0.62020119E+00  0.10724600E+00  0.95692700E-01  0.20000000E-01    7    0
  0.30017275E+00  0.66528339E+00  0.86373000E-01  0.13679370E+00  0.20000000E-01    8    0
  0.29985515E+00  0.70997486E+00 -0.72427000E-01 -0.17475300E-01  0.20000000E-01    9    0
  0.30014206E+00  0.75500288E+00  0.71028000E-01 -0.34623000E-02  0.20000000E-01   10    0
  0.34514413E+00  0.35021457E+00  0.72063000E-01  0.10238370E+00  0.20000000E-01   11    0
  0.34506806E+00  0.39481362E+00  0.34031000E-01 -0.98094300E-01  0.20000000E-01   12    0
  0.34516915E+00  0.43983963E+00  0.84577000E-01 -0.85089300E-01  0.20000000E-01   13    0
  0.34493263E+00  0.48489077E+00 -0.33686000E-01 -0.59518300E-01  0.20000000E-01   14    0
  0.34532805E+00  0.52986736E+00  0.16402600E+00 -0.71225300E-01  0.20000000E-01   15    0
  0.34551407E+00  0.57525932E+00  0.25703400E+00  0.12475770E+00  0.20000000E-01   16    0
  0.34506813E+00  0.61996274E+00  0.34063000E-01 -0.23532300E-01  0.20000000E-01   17    0
  0.34519309E+00  0.66486423E+00  0.96546000E-01 -0.72790300E-01  0.20000000E-01   18    0
  0.34513594E+00  0.71023972E+00  0.67971000E-01  0.11495770E+00  0.20000000E-01   19    0
  0.34520022E+00  0.75514812E+00  0.10011200E+00  0.69156700E-01  0.20000000E-01   20    0
  0.38989307E+00  0.34997797E+00 -0.53463000E-01 -0.15919300E-01  0.20000000E-01   21    0
  0.38996086E+00  0.39524430E+00 -0.19571000E-01  0.11724870E+00  0.20000000E-01   22    0
  0.39015969E+00  0.44021274E+00  0.79845000E-01  0.10146470E+00  0.20000000E-01   23    0
  0.38984460E+00  0.48485810E+00 -0.77701000E-01 -0.75855300E-01  0.20000000E-01   24    0
  0.39015122E+00  0.53007447E+00  0.75611000E-01  0.32333700E-01  0.20000000E-01   25    0
  0.39001443E+00  0.57488651E+00  0.72170000E-02 -0.61648300E-01  0.20000000E-01   26    0
  0.38981300E+00  0.62008845E+00 -0.93502000E-01  0.39322700E-01  0.20000000E-01   27    0
  0.39004974E+00  0.66508333E+00  0.24869000E-01  0.36760700E-01  0.20000000E-01   28    0
  0.39011913E+00  0.71012560E+00  0.59564000E-01  0.57894700E-01  0.20000000E-01   29    0
  0.38966437E+00  0.75497485E+00 -0.16781600E+00 -0.17480300E-01  0.20000000E-01   30    0
  0.43500916E+00  0.35011609E+00  0.45790000E-02  0.53141700E-01  0.20000000E-01   31    0
  0.43526727E+00  0.39564397E+00  0.13363500E+00  0.31708370E+00  0.20000000E-01   32    0
  0.43465282E+00  0.44007683E+00 -0.17359100E+00  0.33509700E-01  0.20000000E-01   33    0
  0.43476353E+00  0.48481205E+00 -0.11823400E+00 -0.98880300E-01  0.20000000E-01   34    0
  0.43495513E+00  0.53040540E+00 -0.22433000E-01  0.19779570E+00  0.20000000E-01   35    0
  0.43502381E+00  0.57461283E+00  0.11905000E-01 -0.19848630E+00  0.20000000E-01   36    0
  0.43491126E+00  0.61994824E+00 -0.44371000E-01 -0.30783300E-01  0.20000000E-01   37    0
  0.43520548E+00  0.66491065E+00  0.10274100E+00 -0.49577300E-01  0.20000000E-01   38    0
  0.43527368E+00  0.70991873E+00  0.13684000E+00 -0.45536300E-01  0.20000000E-01   39    0
  0.43495035E+00  0.75480685E+00 -0.24825000E-01 -0.10148030E+00  0.20000000E-01   40    0
  0.47994820E+00  0.35037854E+00 -0.25901000E-01  0.18436570E+00  0.20000000E-01   41    0
  0.48013698E+00  0.39479557E+00  0.68492000E-01 -0.10711730E+00  0.20000000E-01   42    0
  0.47985902E+00  0.43991996E+00 -0.70489000E-01 -0.44925300E-01  0.20000000E-01   43    0
  0.48017335E+00  0.48503505E+00  0.86676000E-01  0.12620700E-01  0.20000000E-01   44    0
  0.48026569E+00  0.52986389E+00  0.13284500E+00 -0.72956300E-01  0.20000000E-01   45    0
  0.48002960E+00  0.57476086E+00  0.14799000E-01 -0.12447230E+00  0.20000000E-01   46    0
  0.48038338E+00  0.61967997E+00  0.19168900E+00 -0.16491730E+00  0.20000000E-01   47    0
  0.48000127E+00  0.66484914E+00  0.63300000E-03 -0.80332300E-01  0.20000000E-01   48    0
  0.47993457E+00  0.71014152E+00 -0.32714000E-01  0.65857700E-01  0.20000000E-01   49    0
  0.47973021E+00  0.75495286E+00 -0.13489400E+00 -0.28472300E-01  0.20000000E-01   50    0
 VARIABLES= X1,X2,Y1,Y2,R,ID,RK
ZONE T="    4" 
SOLUTIONTIME=     0.00300000,STRANDID=   1
  0.29999778E+00  0.34996120E+00 -0.55500000E-03 -0.24410600E-01  0.20000000E-01    1    0
  0.29997640E+00  0.39453040E+00 -0.59010000E-02 -0.13210960E+00  0.20000000E-01    2    0
  0.29982012E+00  0.43994478E+00 -0.44969000E-01 -0.28515600E-01  0.20000000E-01    3    0
  0.29972356E+00  0.48446038E+00 -0.69111000E-01 -0.14961560E+00  0.20000000E-01    4    0
  0.29947825E+00  0.53001802E+00 -0.13043800E+00 -0.10205600E-01  0.20000000E-01    5    0
  0.29901478E+00  0.57456955E+00 -0.24630500E+00 -0.12232360E+00  0.20000000E-01    6    0
  0.30042898E+00  0.62036316E+00  0.10724600E+00  0.76079400E-01  0.20000000E-01    7    0
  0.30034549E+00  0.66552756E+00  0.86373000E-01  0.11718040E+00  0.20000000E-01    8    0
  0.29971029E+00  0.70991049E+00 -0.72427000E-01 -0.37088600E-01  0.20000000E-01    9    0
  0.30028411E+00  0.75496654E+00  0.71028000E-01 -0.23075600E-01  0.20000000E-01   10    0
  0.34528825E+00  0.35038992E+00  0.72063000E-01  0.82770400E-01  0.20000000E-01   11    0
  0.34513612E+00  0.39458801E+00  0.34031000E-01 -0.11770760E+00  0.20000000E-01   12    0
  0.34533831E+00  0.43964003E+00  0.84577000E-01 -0.10470260E+00  0.20000000E-01   13    0
  0.34486526E+00  0.48474231E+00 -0.33686000E-01 -0.79131600E-01  0.20000000E-01   14    0
  0.34565610E+00  0.52969549E+00  0.16402600E+00 -0.90838600E-01  0.20000000E-01   15    0
  0.34602814E+00  0.57547942E+00  0.25703400E+00  0.10514440E+00  0.20000000E-01   16    0
  0.34513625E+00  0.61988626E+00  0.34063000E-01 -0.43145600E-01  0.20000000E-01   17    0
  0.34538618E+00  0.66468923E+00  0.96546000E-01 -0.92403600E-01  0.20000000E-01   18    0
  0.34527188E+00  0.71044022E+00  0.67971000E-01  0.95344400E-01  0.20000000E-01   19    0
  0.34540045E+00  0.75525701E+00  0.10011200E+00  0.49543400E-01  0.20000000E-01   20    0
  0.38978615E+00  0.34991671E+00 -0.53463000E-01 -0.35532600E-01  0.20000000E-01   21    0
  0.38992172E+00  0.39544938E+00 -0.19571000E-01  0.97635400E-01  0.20000000E-01   22    0
  0.39031938E+00  0.44038625E+00  0.79845000E-01  0.81851400E-01  0.20000000E-01   23    0
  0.38968920E+00  0.48467697E+00 -0.77701000E-01 -0.95468600E-01  0.20000000E-01   24    0
  0.39030244E+00  0.53010972E+00  0.75611000E-01  0.12720400E-01  0.20000000E-01   25    0
  0.39002887E+00  0.57473379E+00  0.72170000E-02 -0.81261600E-01  0.20000000E-01   26    0
  0.38962599E+00  0.62013768E+00 -0.93502000E-01  0.19709400E-01  0.20000000E-01   27    0
  0.39009948E+00  0.66512743E+00  0.24869000E-01  0.17147400E-01  0.20000000E-01   28    0
  0.39023826E+00  0.71021197E+00  0.59564000E-01  0.38281400E-01  0.20000000E-01   29    0
  0.38932874E+00  0.75491047E+00 -0.16781600E+00 -0.37093600E-01  0.20000000E-01   30    0
  0.43501832E+00  0.35019295E+00  0.45790000E-02  0.33528400E-01  0.20000000E-01   31    0
  0.43553454E+00  0.39624872E+00  0.13363500E+00  0.29747040E+00  0.20000000E-01   32    0
  0.43430564E+00  0.44011443E+00 -0.17359100E+00  0.13896400E-01  0.20000000E-01   33    0
  0.43452706E+00  0.48458487E+00 -0.11823400E+00 -0.11849360E+00  0.20000000E-01   34    0
  0.43491027E+00  0.53077157E+00 -0.22433000E-01  0.17818240E+00  0.20000000E-01   35    0
  0.43504762E+00  0.57418644E+00  0.11905000E-01 -0.21809960E+00  0.20000000E-01   36    0
  0.43482252E+00  0.61985725E+00 -0.44371000E-01 -0.50396600E-01  0.20000000E-01   37    0
  0.43541096E+00  0.66478208E+00  0.10274100E+00 -0.69190600E-01  0.20000000E-01   38    0
  0.43554736E+00  0.70979824E+00  0.13684000E+00 -0.65149600E-01  0.20000000E-01   39    0
  0.43490070E+00  0.75457447E+00 -0.24825000E-01 -0.12109360E+00  0.20000000E-01   40    0
  0.47989640E+00  0.35071785E+00 -0.25901000E-01  0.16475240E+00  0.20000000E-01   41    0
  0.48027397E+00  0.39455192E+00  0.68492000E-01 -0.12673060E+00  0.20000000E-01   42    0
  0.47971804E+00  0.43980069E+00 -0.70489000E-01 -0.64538600E-01  0.20000000E-01   43    0
  0.48034670E+00  0.48503087E+00  0.86676000E-01 -0.69926000E-02  0.20000000E-01   44    0
  0.48053138E+00  0.52968856E+00  0.13284500E+00 -0.92569600E-01  0.20000000E-01   45    0
  0.48005920E+00  0.57448250E+00  0.14799000E-01 -0.14408560E+00  0.20000000E-01   46    0
  0.48076676E+00  0.61932072E+00  0.19168900E+00 -0.18453060E+00  0.20000000E-01   47    0
  0.48000253E+00  0.66465906E+00  0.63300000E-03 -0.99945600E-01  0.20000000E-01   48    0
  0.47986914E+00  0.71024382E+00 -0.32714000E-01  0.46244400E-01  0.20000000E-01   49    0
  0.47946042E+00  0.75486650E+00 -0.13489400E+00 -0.48085600E-01  0.20000000E-01   50    0
 VARIABLES= X1,X2,Y1,Y2,R,ID,RK
ZONE T="    6" 
SOLUTIONTIME=     0.00500000,STRANDID=   1
  0.29999667E+00  0.34988296E+00 -0.55500000E-03 -0.44023900E-01  0.20000000E-01    1    0
  0.29996459E+00  0.39423676E+00 -0.59010000E-02 -0.15172290E+00  0.20000000E-01    2    0
  0.29973019E+00  0.43985833E+00 -0.44969000E-01 -0.48128900E-01  0.20000000E-01    3    0
  0.29958533E+00  0.48413173E+00 -0.69111000E-01 -0.16922890E+00  0.20000000E-01    4    0
  0.29921737E+00  0.52996819E+00 -0.13043800E+00 -0.29818900E-01  0.20000000E-01    5    0
  0.29852217E+00  0.57429548E+00 -0.24630500E+00 -0.14193690E+00  0.20000000E-01    6    0
  0.30064348E+00  0.62048590E+00  0.10724600E+00  0.56466100E-01  0.20000000E-01    7    0
  0.30051824E+00  0.66573250E+00  0.86373000E-01  0.97567100E-01  0.20000000E-01    8    0
  0.29956544E+00  0.70980689E+00 -0.72427000E-01 -0.56701900E-01  0.20000000E-01    9    0
  0.30042617E+00  0.75489097E+00  0.71028000E-01 -0.42688900E-01  0.20000000E-01   10    0
  0.34543238E+00  0.35052604E+00  0.72063000E-01  0.63157100E-01  0.20000000E-01   11    0
  0.34520419E+00  0.39432317E+00  0.34031000E-01 -0.13732090E+00  0.20000000E-01   12    0
  0.34550746E+00  0.43940120E+00  0.84577000E-01 -0.12431590E+00  0.20000000E-01   13    0
  0.34479788E+00  0.48455463E+00 -0.33686000E-01 -0.98744900E-01  0.20000000E-01   14    0
  0.34598416E+00  0.52948439E+00  0.16402600E+00 -0.11045190E+00  0.20000000E-01   15    0
  0.34654220E+00  0.57566029E+00  0.25703400E+00  0.85531100E-01  0.20000000E-01   16    0
  0.34520438E+00  0.61977055E+00  0.34063000E-01 -0.62758900E-01  0.20000000E-01   17    0
  0.34557928E+00  0.66447500E+00  0.96546000E-01 -0.11201690E+00  0.20000000E-01   18    0
  0.34540783E+00  0.71060149E+00  0.67971000E-01  0.75731100E-01  0.20000000E-01   19    0
  0.34560067E+00  0.75532668E+00  0.10011200E+00  0.29930100E-01  0.20000000E-01   20    0
  0.38967922E+00  0.34981622E+00 -0.53463000E-01 -0.55145900E-01  0.20000000E-01   21    0
  0.38988257E+00  0.39561523E+00 -0.19571000E-01  0.78022100E-01  0.20000000E-01   22    0
  0.39047907E+00  0.44052053E+00  0.79845000E-01  0.62238100E-01  0.20000000E-01   23    0
  0.38953379E+00  0.48445661E+00 -0.77701000E-01 -0.11508190E+00  0.20000000E-01   24    0
  0.39045367E+00  0.53010574E+00  0.75611000E-01 -0.68929000E-02  0.20000000E-01   25    0
  0.39004330E+00  0.57454185E+00  0.72170000E-02 -0.10087490E+00  0.20000000E-01   26    0
  0.38943899E+00  0.62014768E+00 -0.93502000E-01  0.96100000E-04  0.20000000E-01   27    0
  0.39014921E+00  0.66513230E+00  0.24869000E-01 -0.24659000E-02  0.20000000E-01   28    0
  0.39035738E+00  0.71025911E+00  0.59564000E-01  0.18668100E-01  0.20000000E-01   29    0
  0.38899310E+00  0.75480686E+00 -0.16781600E+00 -0.56706900E-01  0.20000000E-01   30    0
  0.43502747E+00  0.35023059E+00  0.45790000E-02  0.13915100E-01  0.20000000E-01   31    0
  0.43580181E+00  0.39681424E+00  0.13363500E+00  0.27785710E+00  0.20000000E-01   32    0
  0.43395845E+00  0.44011280E+00 -0.17359100E+00 -0.57169000E-02  0.20000000E-01   33    0
  0.43429060E+00  0.48431846E+00 -0.11823400E+00 -0.13810690E+00  0.20000000E-01   34    0
  0.43486540E+00  0.53109851E+00 -0.22433000E-01  0.15856910E+00  0.20000000E-01   35    0
  0.43507143E+00  0.57372082E+00  0.11905000E-01 -0.23771290E+00  0.20000000E-01   36    0
  0.43473377E+00  0.61972704E+00 -0.44371000E-01 -0.70009900E-01  0.20000000E-01   37    0
  0.43561645E+00  0.66461428E+00  0.10274100E+00 -0.88803900E-01  0.20000000E-01   38    0
  0.43582104E+00  0.70963852E+00  0.13684000E+00 -0.84762900E-01  0.20000000E-01   39    0
  0.43485105E+00  0.75430286E+00 -0.24825000E-01 -0.14070690E+00  0.20000000E-01   40    0
  0.47984459E+00  0.35101793E+00 -0.25901000E-01  0.14513910E+00  0.20000000E-01   41    0
  0.48041095E+00  0.39426904E+00  0.68492000E-01 -0.14634390E+00  0.20000000E-01   42    0
  0.47957707E+00  0.43964219E+00 -0.70489000E-01 -0.84151900E-01  0.20000000E-01   43    0
  0.48052006E+00  0.48498746E+00  0.86676000E-01 -0.26605900E-01  0.20000000E-01   44    0
  0.48079707E+00  0.52947400E+00  0.13284500E+00 -0.11218290E+00  0.20000000E-01   45    0
  0.48008879E+00  0.57416491E+00  0.14799000E-01 -0.16369890E+00  0.20000000E-01   46    0
  0.48115013E+00  0.61892224E+00  0.19168900E+00 -0.20414390E+00  0.20000000E-01   47    0
  0.48000380E+00  0.66442975E+00  0.63300000E-03 -0.11955890E+00  0.20000000E-01   48    0
  0.47980372E+00  0.71030689E+00 -0.32714000E-01  0.26631100E-01  0.20000000E-01   49    0
  0.47919064E+00  0.75474091E+00 -0.13489400E+00 -0.67698900E-01  0.20000000E-01   50    0
 VARIABLES= X1,X2,Y1,Y2,R,ID,RK
ZONE T="    8" 
SOLUTIONTIME=     0.00700000,STRANDID=   1
  0.29999556E+00  0.34976549E+00 -0.55500000E-03 -0.63637200E-01  0.20000000E-01    1    0
  0.29995279E+00  0.39390390E+00 -0.59010000E-02 -0.17133620E+00  0.20000000E-01    2    0
  0.29964025E+00  0.43973265E+00 -0.44969000E-01 -0.67742200E-01  0.20000000E-01    3    0
  0.29944711E+00  0.48376385E+00 -0.69111000E-01 -0.18884220E+00  0.20000000E-01    4    0
  0.29895650E+00  0.52987913E+00 -0.13043800E+00 -0.49432200E-01  0.20000000E-01    5    0
  0.29802956E+00  0.57398218E+00 -0.24630500E+00 -0.16155020E+00  0.20000000E-01    6    0
  0.30085797E+00  0.62056941E+00  0.10724600E+00  0.36852800E-01  0.20000000E-01    7    0
  0.30069098E+00  0.66589822E+00  0.86373000E-01  0.77953800E-01  0.20000000E-01    8    0
  0.29942058E+00  0.70966406E+00 -0.72427000E-01 -0.76315200E-01  0.20000000E-01    9    0
  0.30056822E+00  0.75477617E+00  0.71028000E-01 -0.62302200E-01  0.20000000E-01   10    0
  0.34557650E+00  0.35062294E+00  0.72063000E-01  0.43543800E-01  0.20000000E-01   11    0
  0.34527225E+00  0.39401911E+00  0.34031000E-01 -0.15693420E+00  0.20000000E-01   12    0
  0.34567662E+00  0.43912315E+00  0.84577000E-01 -0.14392920E+00  0.20000000E-01   13    0
  0.34473051E+00  0.48432772E+00 -0.33686000E-01 -0.11835820E+00  0.20000000E-01   14    0
  0.34631221E+00  0.52923406E+00  0.16402600E+00 -0.13006520E+00  0.20000000E-01   15    0
  0.34705627E+00  0.57580193E+00  0.25703400E+00  0.65917800E-01  0.20000000E-01   16    0
  0.34527250E+00  0.61961561E+00  0.34063000E-01 -0.82372200E-01  0.20000000E-01   17    0
  0.34577237E+00  0.66422154E+00  0.96546000E-01 -0.13163020E+00  0.20000000E-01   18    0
  0.34554377E+00  0.71072353E+00  0.67971000E-01  0.56117800E-01  0.20000000E-01   19    0
  0.34580090E+00  0.75535712E+00  0.10011200E+00  0.10316800E-01  0.20000000E-01   20    0
  0.38957230E+00  0.34967651E+00 -0.53463000E-01 -0.74759200E-01  0.20000000E-01   21    0
  0.38984343E+00  0.39574186E+00 -0.19571000E-01  0.58408800E-01  0.20000000E-01   22    0
  0.39063876E+00  0.44061558E+00  0.79845000E-01  0.42624800E-01  0.20000000E-01   23    0
  0.38937839E+00  0.48419702E+00 -0.77701000E-01 -0.13469520E+00  0.20000000E-01   24    0
  0.39060489E+00  0.53006254E+00  0.75611000E-01 -0.26506200E-01  0.20000000E-01   25    0
  0.39005774E+00  0.57431068E+00  0.72170000E-02 -0.12048820E+00  0.20000000E-01   26    0
  0.38925198E+00  0.62011845E+00 -0.93502000E-01 -0.19517200E-01  0.20000000E-01   27    0
  0.39019895E+00  0.66509795E+00  0.24869000E-01 -0.22079200E-01  0.20000000E-01   28    0
  0.39047651E+00  0.71026702E+00  0.59564000E-01 -0.94520000E-03  0.20000000E-01   29    0
  0.38865747E+00  0.75466402E+00 -0.16781600E+00 -0.76320200E-01  0.20000000E-01   30    0
  0.43503663E+00  0.35022900E+00  0.45790000E-02 -0.56982000E-02  0.20000000E-01   31    0
  0.43606908E+00  0.39734054E+00  0.13363500E+00  0.25824380E+00  0.20000000E-01   32    0
  0.43361127E+00  0.44007194E+00 -0.17359100E+00 -0.25330200E-01  0.20000000E-01   33    0
  0.43405413E+00  0.48401282E+00 -0.11823400E+00 -0.15772020E+00  0.20000000E-01   34    0
  0.43482054E+00  0.53138623E+00 -0.22433000E-01  0.13895580E+00  0.20000000E-01   35    0
  0.43509524E+00  0.57321598E+00  0.11905000E-01 -0.25732620E+00  0.20000000E-01   36    0
  0.43464503E+00  0.61955760E+00 -0.44371000E-01 -0.89623200E-01  0.20000000E-01   37    0
  0.43582193E+00  0.66440725E+00  0.10274100E+00 -0.10841720E+00  0.20000000E-01   38    0
  0.43609472E+00  0.70943958E+00  0.13684000E+00 -0.10437620E+00  0.20000000E-01   39    0
  0.43480140E+00  0.75399202E+00 -0.24825000E-01 -0.16032020E+00  0.20000000E-01   40    0
  0.47979279E+00  0.35127879E+00 -0.25901000E-01  0.12552580E+00  0.20000000E-01   41    0
  0.48054794E+00  0.39394693E+00  0.68492000E-01 -0.16595720E+00  0.20000000E-01   42    0
  0.47943609E+00  0.43944446E+00 -0.70489000E-01 -0.10376520E+00  0.20000000E-01   43    0
  0.48069341E+00  0.48490483E+00  0.86676000E-01 -0.46219200E-01  0.20000000E-01   44    0
  0.48106276E+00  0.52922022E+00  0.13284500E+00 -0.13179620E+00  0.20000000E-01   45    0
  0.48011839E+00  0.57380809E+00  0.14799000E-01 -0.18331220E+00  0.20000000E-01   46    0
  0.48153351E+00  0.61848453E+00  0.19168900E+00 -0.22375720E+00  0.20000000E-01   47    0
  0.48000506E+00  0.66416121E+00  0.63300000E-03 -0.13917220E+00  0.20000000E-01   48    0
  0.47973829E+00  0.71033073E+00 -0.32714000E-01  0.70178000E-02  0.20000000E-01   49    0
  0.47892085E+00  0.75457609E+00 -0.13489400E+00 -0.87312200E-01  0.20000000E-01   50    0
 VARIABLES= X1,X2,Y1,Y2,R,ID,RK
ZONE T="   10" 
SOLUTIONTIME=     0.00900000,STRANDID=   1
  0.29999445E+00  0.34960879E+00 -0.55500000E-03 -0.83250500E-01  0.20000000E-01    1    0
  0.29994099E+00  0.39353180E+00 -0.59010000E-02 -0.19094950E+00  0.20000000E-01    2    0
  0.29955031E+00  0.43956774E+00 -0.44969000E-01 -0.87355500E-01  0.20000000E-01    3    0
  0.29930889E+00  0.48335674E+00 -0.69111000E-01 -0.20845550E+00  0.20000000E-01    4    0
  0.29869562E+00  0.52975084E+00 -0.13043800E+00 -0.69045500E-01  0.20000000E-01    5    0
  0.29753695E+00  0.57362966E+00 -0.24630500E+00 -0.18116350E+00  0.20000000E-01    6    0
  0.30107246E+00  0.62061369E+00  0.10724600E+00  0.17239500E-01  0.20000000E-01    7    0
  0.30086373E+00  0.66602470E+00  0.86373000E-01  0.58340500E-01  0.20000000E-01    8    0
  0.29927573E+00  0.70948201E+00 -0.72427000E-01 -0.95928500E-01  0.20000000E-01    9    0
  0.30071028E+00  0.75462214E+00  0.71028000E-01 -0.81915500E-01  0.20000000E-01   10    0
  0.34572063E+00  0.35068060E+00  0.72063000E-01  0.23930500E-01  0.20000000E-01   11    0
  0.34534031E+00  0.39367582E+00  0.34031000E-01 -0.17654750E+00  0.20000000E-01   12    0
  0.34584577E+00  0.43880587E+00  0.84577000E-01 -0.16354250E+00  0.20000000E-01   13    0
  0.34466314E+00  0.48406158E+00 -0.33686000E-01 -0.13797150E+00  0.20000000E-01   14    0
  0.34664026E+00  0.52894451E+00  0.16402600E+00 -0.14967850E+00  0.20000000E-01   15    0
  0.34757034E+00  0.57590434E+00  0.25703400E+00  0.46304500E-01  0.20000000E-01   16    0
  0.34534063E+00  0.61942144E+00  0.34063000E-01 -0.10198550E+00  0.20000000E-01   17    0
  0.34596546E+00  0.66392886E+00  0.96546000E-01 -0.15124350E+00  0.20000000E-01   18    0
  0.34567971E+00  0.71080634E+00  0.67971000E-01  0.36504500E-01  0.20000000E-01   19    0
  0.34600112E+00  0.75534833E+00  0.10011200E+00 -0.92965000E-02  0.20000000E-01   20    0
  0.38946537E+00  0.34949757E+00 -0.53463000E-01 -0.94372500E-01  0.20000000E-01   21    0
  0.38980429E+00  0.39582925E+00 -0.19571000E-01  0.38795500E-01  0.20000000E-01   22    0
  0.39079845E+00  0.44067141E+00  0.79845000E-01  0.23011500E-01  0.20000000E-01   23    0
  0.38922299E+00  0.48389821E+00 -0.77701000E-01 -0.15430850E+00  0.20000000E-01   24    0
  0.39075611E+00  0.52998010E+00  0.75611000E-01 -0.46119500E-01  0.20000000E-01   25    0
  0.39007217E+00  0.57404028E+00  0.72170000E-02 -0.14010150E+00  0.20000000E-01   26    0
  0.38906498E+00  0.62004999E+00 -0.93502000E-01 -0.39130500E-01  0.20000000E-01   27    0
  0.39024869E+00  0.66502437E+00  0.24869000E-01 -0.41692500E-01  0.20000000E-01   28    0
  0.39059564E+00  0.71023571E+00  0.59564000E-01 -0.20558500E-01  0.20000000E-01   29    0
  0.38832184E+00  0.75448196E+00 -0.16781600E+00 -0.95933500E-01  0.20000000E-01   30    0
  0.43504579E+00  0.35018818E+00  0.45790000E-02 -0.25311500E-01  0.20000000E-01   31    0
  0.43633635E+00  0.39782760E+00  0.13363500E+00  0.23863050E+00  0.20000000E-01   32    0
  0.43326409E+00  0.43999186E+00 -0.17359100E+00 -0.44943500E-01  0.20000000E-01   33    0
  0.43381766E+00  0.48366796E+00 -0.11823400E+00 -0.17733350E+00  0.20000000E-01   34    0
  0.43477567E+00  0.53163472E+00 -0.22433000E-01  0.11934250E+00  0.20000000E-01   35    0
  0.43511905E+00  0.57267190E+00  0.11905000E-01 -0.27693950E+00  0.20000000E-01   36    0
  0.43455629E+00  0.61934893E+00 -0.44371000E-01 -0.10923650E+00  0.20000000E-01   37    0
  0.43602741E+00  0.66416099E+00  0.10274100E+00 -0.12803050E+00  0.20000000E-01   38    0
  0.43636840E+00  0.70920140E+00  0.13684000E+00 -0.12398950E+00  0.20000000E-01   39    0
  0.43475175E+00  0.75364196E+00 -0.24825000E-01 -0.17993350E+00  0.20000000E-01   40    0
  0.47974099E+00  0.35150042E+00 -0.25901000E-01  0.10591250E+00  0.20000000E-01   41    0
  0.48068492E+00  0.39358559E+00  0.68492000E-01 -0.18557050E+00  0.20000000E-01   42    0
  0.47929511E+00  0.43920751E+00 -0.70489000E-01 -0.12337850E+00  0.20000000E-01   43    0
  0.48086676E+00  0.48478297E+00  0.86676000E-01 -0.65832500E-01  0.20000000E-01   44    0
  0.48132845E+00  0.52892720E+00  0.13284500E+00 -0.15140950E+00  0.20000000E-01   45    0
  0.48014799E+00  0.57341204E+00  0.14799000E-01 -0.20292550E+00  0.20000000E-01   46    0
  0.48191689E+00  0.61800759E+00  0.19168900E+00 -0.24337050E+00  0.20000000E-01   47    0
  0.48000633E+00  0.66385344E+00  0.63300000E-03 -0.15878550E+00  0.20000000E-01   48    0
  0.47967286E+00  0.71031534E+00 -0.32714000E-01 -0.12595500E-01  0.20000000E-01   49    0
  0.47865106E+00  0.75437204E+00 -0.13489400E+00 -0.10692550E+00  0.20000000E-01   50    0
 VARIABLES= X1,X2,Y1,Y2,R,ID,RK
ZONE T="   12" 
SOLUTIONTIME=     0.01100000,STRANDID=   1
  0.29999334E+00  0.34941287E+00 -0.55500000E-03 -0.10286380E+00  0.20000000E-01    1    0
  0.29992919E+00  0.39312049E+00 -0.59010000E-02 -0.21056280E+00  0.20000000E-01    2    0
  0.29946037E+00  0.43936361E+00 -0.44969000E-01 -0.10696880E+00  0.20000000E-01    3    0
  0.29917067E+00  0.48291041E+00 -0.69111000E-01 -0.22806880E+00  0.20000000E-01    4    0
  0.29843474E+00  0.52958333E+00 -0.13043800E+00 -0.88658800E-01  0.20000000E-01    5    0
  0.29704434E+00  0.57323792E+00 -0.24630500E+00 -0.20077680E+00  0.20000000E-01    6    0
  0.30128695E+00  0.62061875E+00  0.10724600E+00 -0.23738000E-02  0.20000000E-01    7    0
  0.30103648E+00  0.66611197E+00  0.86373000E-01  0.38727200E-01  0.20000000E-01    8    0
  0.29913088E+00  0.70926074E+00 -0.72427000E-01 -0.11554180E+00  0.20000000E-01    9    0
  0.30085234E+00  0.75442889E+00  0.71028000E-01 -0.10152880E+00  0.20000000E-01   10    0
  0.34586476E+00  0.35069905E+00  0.72063000E-01  0.43172000E-02  0.20000000E-01   11    0
  0.34540837E+00  0.39329331E+00  0.34031000E-01 -0.19616080E+00  0.20000000E-01   12    0
  0.34601492E+00  0.43844937E+00  0.84577000E-01 -0.18315580E+00  0.20000000E-01   13    0
  0.34459577E+00  0.48375622E+00 -0.33686000E-01 -0.15758480E+00  0.20000000E-01   14    0
  0.34696831E+00  0.52861574E+00  0.16402600E+00 -0.16929180E+00  0.20000000E-01   15    0
  0.34808441E+00  0.57596753E+00  0.25703400E+00  0.26691200E-01  0.20000000E-01   16    0
  0.34540876E+00  0.61918805E+00  0.34063000E-01 -0.12159880E+00  0.20000000E-01   17    0
  0.34615855E+00  0.66359696E+00  0.96546000E-01 -0.17085680E+00  0.20000000E-01   18    0
  0.34581565E+00  0.71084993E+00  0.67971000E-01  0.16891200E-01  0.20000000E-01   19    0
  0.34620134E+00  0.75530032E+00  0.10011200E+00 -0.28909800E-01  0.20000000E-01   20    0
  0.38935844E+00  0.34927941E+00 -0.53463000E-01 -0.11398580E+00  0.20000000E-01   21    0
  0.38976515E+00  0.39587743E+00 -0.19571000E-01  0.19182200E-01  0.20000000E-01   22    0
  0.39095814E+00  0.44068802E+00  0.79845000E-01  0.33982000E-02  0.20000000E-01   23    0
  0.38906759E+00  0.48356018E+00 -0.77701000E-01 -0.17392180E+00  0.20000000E-01   24    0
  0.39090733E+00  0.52985845E+00  0.75611000E-01 -0.65732800E-01  0.20000000E-01   25    0
  0.39008660E+00  0.57373066E+00  0.72170000E-02 -0.15971480E+00  0.20000000E-01   26    0
  0.38887798E+00  0.61994231E+00 -0.93502000E-01 -0.58743800E-01  0.20000000E-01   27    0
  0.39029843E+00  0.66491157E+00  0.24869000E-01 -0.61305800E-01  0.20000000E-01   28    0
  0.39071477E+00  0.71016518E+00  0.59564000E-01 -0.40171800E-01  0.20000000E-01   29    0
  0.38798621E+00  0.75426068E+00 -0.16781600E+00 -0.11554680E+00  0.20000000E-01   30    0
  0.43505495E+00  0.35010814E+00  0.45790000E-02 -0.44924800E-01  0.20000000E-01   31    0
  0.43660362E+00  0.39827545E+00  0.13363500E+00  0.21901720E+00  0.20000000E-01   32    0
  0.43291691E+00  0.43987256E+00 -0.17359100E+00 -0.64556800E-01  0.20000000E-01   33    0
  0.43358119E+00  0.48328388E+00 -0.11823400E+00 -0.19694680E+00  0.20000000E-01   34    0
  0.43473080E+00  0.53184399E+00 -0.22433000E-01  0.99729200E-01  0.20000000E-01   35    0
  0.43514286E+00  0.57208861E+00  0.11905000E-01 -0.29655280E+00  0.20000000E-01   36    0
  0.43446755E+00  0.61910104E+00 -0.44371000E-01 -0.12884980E+00  0.20000000E-01   37    0
  0.43623289E+00  0.66387551E+00  0.10274100E+00 -0.14764380E+00  0.20000000E-01   38    0
  0.43664208E+00  0.70892401E+00  0.13684000E+00 -0.14360280E+00  0.20000000E-01   39    0
  0.43470210E+00  0.75325268E+00 -0.24825000E-01 -0.19954680E+00  0.20000000E-01   40    0
  0.47968919E+00  0.35168283E+00 -0.25901000E-01  0.86299200E-01  0.20000000E-01   41    0
  0.48082190E+00  0.39318503E+00  0.68492000E-01 -0.20518380E+00  0.20000000E-01   42    0
  0.47915413E+00  0.43893134E+00 -0.70489000E-01 -0.14299180E+00  0.20000000E-01   43    0
  0.48104011E+00  0.48462189E+00  0.86676000E-01 -0.85445800E-01  0.20000000E-01   44    0
  0.48159414E+00  0.52859497E+00  0.13284500E+00 -0.17102280E+00  0.20000000E-01   45    0
  0.48017759E+00  0.57297677E+00  0.14799000E-01 -0.22253880E+00  0.20000000E-01   46    0
  0.48230027E+00  0.61749143E+00  0.19168900E+00 -0.26298380E+00  0.20000000E-01   47    0
  0.48000760E+00  0.66350645E+00  0.63300000E-03 -0.17839880E+00  0.20000000E-01   48    0
  0.47960743E+00  0.71026073E+00 -0.32714000E-01 -0.32208800E-01  0.20000000E-01   49    0
  0.47838127E+00  0.75412877E+00 -0.13489400E+00 -0.12653880E+00  0.20000000E-01   50    0
 VARIABLES= X1,X2,Y1,Y2,R,ID,RK
ZONE T="   14" 
SOLUTIONTIME=     0.01300000,STRANDID=   1
  0.29999223E+00  0.34917773E+00 -0.55500000E-03 -0.12247710E+00  0.20000000E-01    1    0
  0.29991739E+00  0.39266994E+00 -0.59010000E-02 -0.23017610E+00  0.20000000E-01    2    0
  0.29937043E+00  0.43912026E+00 -0.44969000E-01 -0.12658210E+00  0.20000000E-01    3    0
  0.29903245E+00  0.48242486E+00 -0.69111000E-01 -0.24768210E+00  0.20000000E-01    4    0
  0.29817387E+00  0.52937660E+00 -0.13043800E+00 -0.10827210E+00  0.20000000E-01    5    0
  0.29655173E+00  0.57280694E+00 -0.24630500E+00 -0.22039010E+00  0.20000000E-01    6    0
  0.30150144E+00  0.62058459E+00  0.10724600E+00 -0.21987100E-01  0.20000000E-01    7    0
  0.30120922E+00  0.66616000E+00  0.86373000E-01  0.19113900E-01  0.20000000E-01    8    0
  0.29898602E+00  0.70900023E+00 -0.72427000E-01 -0.13515510E+00  0.20000000E-01    9    0
  0.30099439E+00  0.75419642E+00  0.71028000E-01 -0.12114210E+00  0.20000000E-01   10    0
  0.34600888E+00  0.35067826E+00  0.72063000E-01 -0.15296100E-01  0.20000000E-01   11    0
  0.34547643E+00  0.39287157E+00  0.34031000E-01 -0.21577410E+00  0.20000000E-01   12    0
  0.34618408E+00  0.43805364E+00  0.84577000E-01 -0.20276910E+00  0.20000000E-01   13    0
  0.34452840E+00  0.48341163E+00 -0.33686000E-01 -0.17719810E+00  0.20000000E-01   14    0
  0.34729636E+00  0.52824773E+00  0.16402600E+00 -0.18890510E+00  0.20000000E-01   15    0
  0.34859848E+00  0.57599150E+00  0.25703400E+00  0.70779000E-02  0.20000000E-01   16    0
  0.34547688E+00  0.61891544E+00  0.34063000E-01 -0.14121210E+00  0.20000000E-01   17    0
  0.34635164E+00  0.66322582E+00  0.96546000E-01 -0.19047010E+00  0.20000000E-01   18    0
  0.34595159E+00  0.71085430E+00  0.67971000E-01 -0.27221000E-02  0.20000000E-01   19    0
  0.34640157E+00  0.75521308E+00  0.10011200E+00 -0.48523100E-01  0.20000000E-01   20    0
  0.38925152E+00  0.34902202E+00 -0.53463000E-01 -0.13359910E+00  0.20000000E-01   21    0
  0.38972601E+00  0.39588637E+00 -0.19571000E-01 -0.43110000E-03  0.20000000E-01   22    0