 VARIABLES= X1,X2,Y1,Y2,R
ZONE T="    1" 
SOLUTIONTIME=     0.00000000,STRANDID=   1
  0.500000000000000       0.499995096675000       0.000000000000000E+000
 -9.806650000000250E-003  2.000000000000000E-002
 VARIABLES= X1,X2,Y1,Y2,R
ZONE T="    2" 
SOLUTIONTIME=     0.00100000,STRANDID=   1
  0.500000000000000       0.499980386700000       0.000000000000000E+000
 -1.961330000000006E-002  2.000000000000000E-002
 VARIABLES= X1,X2,Y1,Y2,R
ZONE T="    3" 
SOLUTIONTIME=     0.00200000,STRANDID=   1
  0.500000000000000       0.499955870075000       0.000000000000000E+000
 -2.941995000000031E-002  2.000000000000000E-002
 VARIABLES= X1,X2,Y1,Y2,R
ZONE T="    4" 
SOLUTIONTIME=     0.00300000,STRANDID=   1
  0.500000000000000       0.499921546800000       0.000000000000000E+000
 -3.922660000000011E-002  2.000000000000000E-002
 VARIABLES= X1,X2,Y1,Y2,R
ZONE T="    5" 
SOLUTIONTIME=     0.00400000,STRANDID=   1
  0.500000000000000       0.499877416875000       0.000000000000000E+000
 -4.903325000000036E-002  2.000000000000000E-002
 VARIABLES= X1,X2,Y1,Y2,R
ZONE T="    6" 
SOLUTIONTIME=     0.00500000,STRANDID=   1
  0.500000000000000       0.499823480300000       0.000000000000000E+000
 -5.883990000000017E-002  2.000000000000000E-002
 VARIABLES= X1,X2,Y1,Y2,R
ZONE T="    7" 
SOLUTIONTIME=     0.00600000,STRANDID=   1
  0.500000000000000       0.499759737075000       0.000000000000000E+000
 -6.864655000000042E-002  2.000000000000000E-002
 VARIABLES= X1,X2,Y1,Y2,R
ZONE T="    8" 
SOLUTIONTIME=     0.00700000,STRANDID=   1
  0.500000000000000       0.499686187200000       0.000000000000000E+000
 -7.845320000000022E-002  2.000000000000000E-002
 VARIABLES= X1,X2,Y1,Y2,R
ZONE T="    9" 
SOLUTIONTIME=     0.00800000,STRANDID=   1
  0.500000000000000       0.499602830675000       0.000000000000000E+000
 -8.825985000000003E-002  2.000000000000000E-002
 VARIABLES= X1,X2,Y1,Y2,R
ZONE T="   10" 
SOLUTIONTIME=     0.00900000,STRANDID=   1
  0.500000000000000       0.499509667500000       0.000000000000000E+000
 -9.806650000000028E-002  2.000000000000000E-002
 VARIABLES= X1,X2,Y1,Y2,R
ZONE T="   11" 
SOLUTIONTIME=     0.01000000,STRANDID=   1
  0.500000000000000       0.499406697675000       0.000000000000000E+000
 -0.107873150000000       2.000000000000000E-002
 VARIABLES= X1,X2,Y1,Y2,R
ZONE T="   12" 
SOLUTIONTIME=     0.01100000,STRANDID=   1
  0.500000000000000       0.499293921200000       0.000000000000000E+000
 -0.117679800000000       2.000000000000000E-002
 VARIABLES= X1,X2,Y1,Y2,R
ZONE T="   13" 
SOLUTIONTIME=     0.01200000,STRANDID=   1
  0.500000000000000       0.499171338075000       0.000000000000000E+000
 -0.127486450000000       2.000000000000000E-002
 VARIABLES= X1,X2,Y1,Y2,R
ZONE T="   14" 
SOLUTIONTIME=     0.01300000,STRANDID=   1
  0.500000000000000       0.499038948300000       0.000000000000000E+000
 -0.137293100000000       2.000000000000000E-002
 VARIABLES= X1,X2,Y1,Y2,R
ZONE T="   15" 
SOLUTIONTIME=     0.01400000,STRANDID=   1
  0.500000000000000       0.498896751875000       0.000000000000000E+000
 -0.147099750000000       2.000000000000000E-002
 VARIABLES= X1,X2,Y1,Y2,R
ZONE T="   16" 
SOLUTIONTIME=     0.01500000,STRANDID=   1
  0.500000000000000       0.498744748800000       0.000000000000000E+000
 -0.156906400000000       2.000000000000000E-002
 VARIABLES= X1,X2,Y1,Y2,R
ZONE T="   17" 
SOLUTIONTIME=     0.01600000,STRANDID=   1
  0.500000000000000       0.498582939075000       0.000000000000000E+000
 -0.166713050000000       2.000000000000000E-002
 VARIABLES= X1,X2,Y1,Y2,R
ZONE T="   18" 
SOLUTIONTIME=     0.01700000,STRANDID=   1
  0.500000000000000       0.498411322700000       0.000000000000000E+000
 -0.176519700000001       2.000000000000000E-002
 VARIABLES= X1,X2,Y1,Y2,R
ZONE T="   19" 
SOLUTIONTIME=     0.01800000,STRANDID=   1
  0.500000000000000       0.498229899675000       0.000000000000000E+000
 -0.186326350000000       2.000000000000000E-002
 VARIABLES= X1,X2,Y1,Y2,R
ZONE T="   20" 
SOLUTIONTIME=     0.01900000,STRANDID=   1
  0.500000000000000       0.498038670000000       0.000000000000000E+000
 -0.196133000000000       2.000000000000000E-002
 VARIABLES= X1,X2,Y1,Y2,R
ZONE T="   21" 
SOLUTIONTIME=     0.02000000,STRANDID=   1
  0.500000000000000       0.497837633675000       0.000000000000000E+000
 -0.205939650000000       2.000000000000000E-002
 VARIABLES= X1,X2,Y1,Y2,R
ZONE T="   22" 
SOLUTIONTIME=     0.02100000,STRANDID=   1
  0.500000000000000       0.497626790700000       0.000000000000000E+000
 -0.215746300000000       2.000000000000000E-002
 VARIABLES= X1,X2,Y1,Y2,R
ZONE T="   23" 
SOLUTIONTIME=     0.02200000,STRANDID=   1
  0.500000000000000       0.497406141075000       0.000000000000000E+000
 -0.225552950000000       2.000000000000000E-002
 VARIABLES= X1,X2,Y1,Y2,R
ZONE T="   24" 
SOLUTIONTIME=     0.02300000,STRANDID=   1
  0.500000000000000       0.497175684800000       0.000000000000000E+000
 -0.235359600000000       2.000000000000000E-002
 VARIABLES= X1,X2,Y1,Y2,R
ZONE T="   25" 
SOLUTIONTIME=     0.02400000,STRANDID=   1
  0.500000000000000       0.496935421875000       0.000000000000000E+000
 -0.245166250000000       2.000000000000000E-002
 VARIABLES= X1,X2,Y1,Y2,R
ZONE T="   26" 
SOLUTIONTIME=     0.02500000,STRANDID=   1
  0.500000000000000       0.496685352300000       0.000000000000000E+000
 -0.254972900000000       2.000000000000000E-002
 VARIABLES= X1,X2,Y1,Y2,R
ZONE T="   27" 
SOLUTIONTIME=     0.02600000,STRANDID=   1
  0.500000000000000       0.496425476075000       0.000000000000000E+000
 -0.264779550000001       2.000000000000000E-002
 VARIABLES= X1,X2,Y1,Y2,R
ZONE T="   28" 
SOLUTIONTIME=     0.02700000,STRANDID=   1
  0.500000000000000       0.496155793200000       0.000000000000000E+000
 -0.274586200000000       2.000000000000000E-002
 VARIABLES= X1,X2,Y1,Y2,R
ZONE T="   29" 
SOLUTIONTIME=     0.02800000,STRANDID=   1
  0.500000000000000       0.495876303675000       0.000000000000000E+000
 -0.284392850000001       2.000000000000000E-002
 VARIABLES= X1,X2,Y1,Y2,R
ZONE T="   30" 
SOLUTIONTIME=     0.02900000,STRANDID=   1
  0.500000000000000       0.495587007500000       0.000000000000000E+000
 -0.294199500000000       2.000000000000000E-002
 VARIABLES= X1,X2,Y1,Y2,R
ZONE T="   31" 
SOLUTIONTIME=     0.03000000,STRANDID=   1
  0.500000000000000       0.495287904675000       0.000000000000000E+000
 -0.304006150000000       2.000000000000000E-002
 VARIABLES= X1,X2,Y1,Y2,R
ZONE T="   32" 
SOLUTIONTIME=     0.03100000,STRANDID=   1
  0.500000000000000       0.494978995200000       0.000000000000000E+000
 -0.313812800000000       2.000000000000000E-002
 VARIABLES= X1,X2,Y1,Y2,R
ZONE T="   33" 
SOLUTIONTIME=     0.03200000,STRANDID=   1
  0.500000000000000       0.494660279075000       0.000000000000000E+000
 -0.323619450000000       2.000000000000000E-002
 VARIABLES= X1,X2,Y1,Y2,R
ZONE T="   34" 
SOLUTIONTIME=     0.03300000,STRANDID=   1
  0.500000000000000       0.494331756300000       0.000000000000000E+000
 -0.333426100000001       2.000000000000000E-002
 VARIABLES= X1,X2,Y1,Y2,R
ZONE T="   35" 
SOLUTIONTIME=     0.03400000,STRANDID=   1
  0.500000000000000       0.493993426875000       0.000000000000000E+000
 -0.343232750000000       2.000000000000000E-002
 VARIABLES= X1,X2,Y1,Y2,R
ZONE T="   36" 
SOLUTIONTIME=     0.03500000,STRANDID=   1
  0.500000000000000       0.493645290800000       0.000000000000000E+000
 -0.353039400000001       2.000000000000000E-002
 VARIABLES= X1,X2,Y1,Y2,R
ZONE T="   37" 
SOLUTIONTIME=     0.03600000,STRANDID=   1
  0.500000000000000       0.493287348075000       0.000000000000000E+000
 -0.362846050000000       2.000000000000000E-002
 VARIABLES= X1,X2,Y1,Y2,R
ZONE T="   38" 
SOLUTIONTIME=     0.03700000,STRANDID=   1
  0.500000000000000       0.492919598700000       0.000000000000000E+000
 -0.372652700000001       2.000000000000000E-002
 VARIABLES= X1,X2,Y1,Y2,R
ZONE T="   39" 
SOLUTIONTIME=     0.03800000,STRANDID=   1
  0.500000000000000       0.492542042675000       0.000000000000000E+000
 -0.382459350000000       2.000000000000000E-002
 VARIABLES= X1,X2,Y1,Y2,R
ZONE T="   40" 
SOLUTIONTIME=     0.03900000,STRANDID=   1
  0.500000000000000       0.492154680000000       0.000000000000000E+000
 -0.392266000000001       2.000000000000000E-002
 VARIABLES= X1,X2,Y1,Y2,R
ZONE T="   41" 
SOLUTIONTIME=     0.04000000,STRANDID=   1
  0.500000000000000       0.491757510675000       0.000000000000000E+000
 -0.402072650000000       2.000000000000000E-002
 VARIABLES= X1,X2,Y1,Y2,R
ZONE T="   42" 
SOLUTIONTIME=     0.04100000,STRANDID=   1
  0.500000000000000       0.491350534700000       0.000000000000000E+000
 -0.411879300000000       2.000000000000000E-002
 VARIABLES= X1,X2,Y1,Y2,R
ZONE T="   43" 
SOLUTIONTIME=     0.04200000,STRANDID=   1
  0.500000000000000       0.490933752075000       0.000000000000000E+000
 -0.421685950000001       2.000000000000000E-002
 VARIABLES= X1,X2,Y1,Y2,R
ZONE T="   44" 
SOLUTIONTIME=     0.04300000,STRANDID=   1
  0.500000000000000       0.490507162800000       0.000000000000000E+000
 -0.431492600000000       2.000000000000000E-002
 VARIABLES= X1,X2,Y1,Y2,R
ZONE T="   45" 
SOLUTIONTIME=     0.04400000,STRANDID=   1
  0.500000000000000       0.490070766875000       0.000000000000000E+000
 -0.441299250000001       2.000000000000000E-002
 VARIABLES= X1,X2,Y1,Y2,R
ZONE T="   46" 
SOLUTIONTIME=     0.04500000,STRANDID=   1
  0.500000000000000       0.489624564300000       0.000000000000000E+000
 -0.451105900000000       2.000000000000000E-002
 VARIABLES= X1,X2,Y1,Y2,R
ZONE T="   47" 
SOLUTIONTIME=     0.04600000,STRANDID=   1
  0.500000000000000       0.489168555075000       0.000000000000000E+000
 -0.460912550000001       2.000000000000000E-002
 VARIABLES= X1,X2,Y1,Y2,R
ZONE T="   48" 
SOLUTIONTIME=     0.04700000,STRANDID=   1
  0.500000000000000       0.488702739200000       0.000000000000000E+000
 -0.470719200000000       2.000000000000000E-002
 VARIABLES= X1,X2,Y1,Y2,R
ZONE T="   49" 
SOLUTIONTIME=     0.04800000,STRANDID=   1
  0.500000000000000       0.488227116675000       0.000000000000000E+000
 -0.480525850000001       2.000000000000000E-002
 VARIABLES= X1,X2,Y1,Y2,R
ZONE T="   50" 
SOLUTIONTIME=     0.04900000,STRANDID=   1
  0.500000000000000       0.487741687500000       0.000000000000000E+000
 -0.490332500000001       2.000000000000000E-002
 VARIABLES= X1,X2,Y1,Y2,R
ZONE T="   51" 
SOLUTIONTIME=     0.05000000,STRANDID=   1
  0.500000000000000       0.487246451675000       0.000000000000000E+000
 -0.500139150000001       2.000000000000000E-002
 VARIABLES= X1,X2,Y1,Y2,R
ZONE T="   52" 
SOLUTIONTIME=     0.05100000,STRANDID=   1
  0.500000000000000       0.486741409200000       0.000000000000000E+000
 -0.509945800000001       2.000000000000000E-002
 VARIABLES= X1,X2,Y1,Y2,R
ZONE T="   53" 
SOLUTIONTIME=     0.05200000,STRANDID=   1
  0.500000000000000       0.486226560075000       0.000000000000000E+000
 -0.519752450000001       2.000000000000000E-002
 VARIABLES= X1,X2,Y1,Y2,R
ZONE T="   54" 
SOLUTIONTIME=     0.05300000,STRANDID=   1
  0.500000000000000       0.485701904300000       0.000000000000000E+000
 -0.529559100000001       2.000000000000000E-002
 VARIABLES= X1,X2,Y1,Y2,R
ZONE T="   55" 
SOLUTIONTIME=     0.05400000,STRANDID=   1
  0.500000000000000       0.485167441875000       0.000000000000000E+000
 -0.539365750000000       2.000000000000000E-002
 VARIABLES= X1,X2,Y1,Y2,R
ZONE T="   56" 
SOLUTIONTIME=     0.05500000,STRANDID=   1
  0.500000000000000       0.484623172800000       0.000000000000000E+000
 -0.549172400000001       2.000000000000000E-002
 VARIABLES= X1,X2,Y1,Y2,R
ZONE T="   57" 
SOLUTIONTIME=     0.05600000,STRANDID=   1
  0.500000000000000       0.484069097075000       0.000000000000000E+000
 -0.558979050000000       2.000000000000000E-002
 VARIABLES= X1,X2,Y1,Y2,R
ZONE T="   58" 
SOLUTIONTIME=     0.05700000,STRANDID=   1
  0.500000000000000       0.483505214700000       0.000000000000000E+000
 -0.568785700000001       2.000000000000000E-002
 VARIABLES= X1,X2,Y1,Y2,R
ZONE T="   59" 
SOLUTIONTIME=     0.05800000,STRANDID=   1
  0.500000000000000       0.482931525675000       0.000000000000000E+000
 -0.578592350000001       2.000000000000000E-002
 VARIABLES= X1,X2,Y1,Y2,R
ZONE T="   60" 
SOLUTIONTIME=     0.05900000,STRANDID=   1
  0.500000000000000       0.482348030000000       0.000000000000000E+000
 -0.588399000000001       2.000000000000000E-002
 VARIABLES= X1,X2,Y1,Y2,R
ZONE T="   61" 
SOLUTIONTIME=     0.06000000,STRANDID=   1
  0.500000000000000       0.481754727675000       0.000000000000000E+000
 -0.598205650000001       2.000000000000000E-002
 VARIABLES= X1,X2,Y1,Y2,R
ZONE T="   62" 
SOLUTIONTIME=     0.06100000,STRANDID=   1
  0.500000000000000       0.481151618700000       0.000000000000000E+000
 -0.608012300000001       2.000000000000000E-002
 VARIABLES= X1,X2,Y1,Y2,R
ZONE T="   63" 
SOLUTIONTIME=     0.06200000,STRANDID=   1
  0.500000000000000       0.480538703075000       0.000000000000000E+000
 -0.617818950000001       2.000000000000000E-002
 VARIABLES= X1,X2,Y1,Y2,R
ZONE T="   64" 
SOLUTIONTIME=     0.06300000,STRANDID=   1
  0.500000000000000       0.479915980800000       0.000000000000000E+000
 -0.627625600000001       2.000000000000000E-002
 VARIABLES= X1,X2,Y1,Y2,R
ZONE T="   65" 
SOLUTIONTIME=     0.06400000,STRANDID=   1
  0.500000000000000       0.479283451875000       0.000000000000000E+000
 -0.637432250000001       2.000000000000000E-002
 VARIABLES= X1,X2,Y1,Y2,R
ZONE T="   66" 
SOLUTIONTIME=     0.06500000,STRANDID=   1
  0.500000000000000       0.478641116300000       0.000000000000000E+000
 -0.647238900000001       2.000000000000000E-002
 VARIABLES= X1,X2,Y1,Y2,R
ZONE T="   67" 
SOLUTIONTIME=     0.06600000,STRANDID=   1
  0.500000000000000       0.477988974075000       0.000000000000000E+000
 -0.657045550000001       2.000000000000000E-002
 VARIABLES= X1,X2,Y1,Y2,R
ZONE T="   68" 
SOLUTIONTIME=     0.06700000,STRANDID=   1
  0.500000000000000       0.477327025200000       0.000000000000000E+000
 -0.666852200000001       2.000000000000000E-002
 VARIABLES= X1,X2,Y1,Y2,R
ZONE T="   69" 
SOLUTIONTIME=     0.06800000,STRANDID=   1
  0.500000000000000       0.476655269675000       0.000000000000000E+000
 -0.676658850000001       2.000000000000000E-002
 VARIABLES= X1,X2,Y1,Y2,R
ZONE T="   70" 
SOLUTIONTIME=     0.06900000,STRANDID=   1
  0.500000000000000       0.475973707500000       0.000000000000000E+000
 -0.686465500000001       2.000000000000000E-002
 VARIABLES= X1,X2,Y1,Y2,R
ZONE T="   71" 
SOLUTIONTIME=     0.07000000,STRANDID=   1
  0.500000000000000       0.475282338675000       0.000000000000000E+000
 -0.696272150000001       2.000000000000000E-002
 VARIABLES= X1,X2,Y1,Y2,R
ZONE T="   72" 
SOLUTIONTIME=     0.07100000,STRANDID=   1
  0.500000000000000       0.474581163200000       0.000000000000000E+000
 -0.706078800000001       2.000000000000000E-002
 VARIABLES= X1,X2,Y1,Y2,R
ZONE T="   73" 
SOLUTIONTIME=     0.07200000,STRANDID=   1
  0.500000000000000       0.473870181075000       0.000000000000000E+000
 -0.715885450000001       2.000000000000000E-002
 VARIABLES= X1,X2,Y1,Y2,R
ZONE T="   74" 
SOLUTIONTIME=     0.07300000,STRANDID=   1
  0.500000000000000       0.473149392300000       0.000000000000000E+000
 -0.725692100000001       2.000000000000000E-002
 VARIABLES= X1,X2,Y1,Y2,R
ZONE T="   75" 
SOLUTIONTIME=     0.07400000,STRANDID=   1
  0.500000000000000       0.472418796875000       0.000000000000000E+000
 -0.735498750000001       2.000000000000000E-002
 VARIABLES= X1,X2,Y1,Y2,R
ZONE T="   76" 
SOLUTIONTIME=     0.07500000,STRANDID=   1
  0.500000000000000       0.471678394800000       0.000000000000000E+000
 -0.745305400000001       2.000000000000000E-002
 VARIABLES= X1,X2,Y1,Y2,R
ZONE T="   77" 
SOLUTIONTIME=     0.07600000,STRANDID=   1
  0.500000000000000       0.470928186075000       0.000000000000000E+000
 -0.755112050000001       2.000000000000000E-002
 VARIABLES= X1,X2,Y1,Y2,R
ZONE T="   78" 
SOLUTIONTIME=     0.07700000,STRANDID=   1
  0.500000000000000       0.470168170700000       0.000000000000000E+000
 -0.764918700000001       2.000000000000000E-002
 VARIABLES= X1,X2,Y1,Y2,R
ZONE T="   79" 
SOLUTIONTIME=     0.07800000,STRANDID=   1
  0.500000000000000       0.469398348675000       0.000000000000000E+000
 -0.774725350000001       2.000000000000000E-002
 VARIABLES= X1,X2,Y1,Y2,R
ZONE T="   80" 
SOLUTIONTIME=     0.07900000,STRANDID=   1
  0.500000000000000       0.468618720000000       0.000000000000000E+000
 -0.784532000000001       2.000000000000000E-002
 VARIABLES= X1,X2,Y1,Y2,R
ZONE T="   81" 
SOLUTIONTIME=     0.08000000,STRANDID=   1
  0.500000000000000       0.467829284675000       0.000000000000000E+000
 -0.794338650000001       2.000000000000000E-002
 VARIABLES= X1,X2,Y1,Y2,R
ZONE T="   82" 
SOLUTIONTIME=     0.08100000,STRANDID=   1
  0.500000000000000       0.467030042700000       0.000000000000000E+000
 -0.804145300000001       2.000000000000000E-002
 VARIABLES= X1,X2,Y1,Y2,R
ZONE T="   83" 
SOLUTIONTIME=     0.08200000,STRANDID=   1
  0.500000000000000       0.466220994075000       0.000000000000000E+000
 -0.813951950000001       2.000000000000000E-002
 VARIABLES= X1,X2,Y1,Y2,R
ZONE T="   84" 
SOLUTIONTIME=     0.08300000,STRANDID=   1
  0.500000000000000       0.465402138800000       0.000000000000000E+000
 -0.823758600000001       2.000000000000000E-002
 VARIABLES= X1,X2,Y1,Y2,R
ZONE T="   85" 
SOLUTIONTIME=     0.08400000,STRANDID=   1
  0.500000000000000       0.464573476875000       0.000000000000000E+000
 -0.833565250000001       2.000000000000000E-002
 VARIABLES= X1,X2,Y1,Y2,R
ZONE T="   86" 
SOLUTIONTIME=     0.08500000,STRANDID=   1
  0.500000000000000       0.463735008300000       0.000000000000000E+000
 -0.843371900000001       2.000000000000000E-002
 VARIABLES= X1,X2,Y1,Y2,R
ZONE T="   87" 
SOLUTIONTIME=     0.08600000,STRANDID=   1
  0.500000000000000       0.462886733075000       0.000000000000000E+000
 -0.853178550000001       2.000000000000000E-002
 VARIABLES= X1,X2,Y1,Y2,R
ZONE T="   88" 
SOLUTIONTIME=     0.08700000,STRANDID=   1
  0.500000000000000       0.462028651200000       0.000000000000000E+000
 -0.862985200000001       2.000000000000000E-002
 VARIABLES= X1,X2,Y1,Y2,R
ZONE T="   89" 
SOLUTIONTIME=     0.08800000,STRANDID=   1
  0.500000000000000       0.461160762675000       0.000000000000000E+000
 -0.872791850000001       2.000000000000000E-002
 VARIABLES= X1,X2,Y1,Y2,R
ZONE T="   90" 
SOLUTIONTIME=     0.08900000,STRANDID=   1
  0.500000000000000       0.460283067500000       0.000000000000000E+000
 -0.882598500000001       2.000000000000000E-002
 VARIABLES= X1,X2,Y1,Y2,R
ZONE T="   91" 
SOLUTIONTIME=     0.09000000,STRANDID=   1
  0.500000000000000       0.459395565675000       0.000000000000000E+000
 -0.892405150000001       2.000000000000000E-002
 VARIABLES= X1,X2,Y1,Y2,R
ZONE T="   92" 
SOLUTIONTIME=     0.09100000,STRANDID=   1
  0.500000000000000       0.458498257200000       0.000000000000000E+000
 -0.902211800000001       2.000000000000000E-002
 VARIABLES= X1,X2,Y1,Y2,R
ZONE T="   93" 
SOLUTIONTIME=     0.09200000,STRANDID=   1
  0.500000000000000       0.457591142075000       0.000000000000000E+000
 -0.912018450000001       2.000000000000000E-002
 VARIABLES= X1,X2,Y1,Y2,R
ZONE T="   94" 
SOLUTIONTIME=     0.09300000,STRANDID=   1
  0.500000000000000       0.456674220300000       0.000000000000000E+000
 -0.921825100000001       2.000000000000000E-002
 VARIABLES= X1,X2,Y1,Y2,R
ZONE T="   95" 
SOLUTIONTIME=     0.09400000,STRANDID=   1
  0.500000000000000       0.455747491875000       0.000000000000000E+000
 -0.931631750000001       2.000000000000000E-002
 VARIABLES= X1,X2,Y1,Y2,R
ZONE T="   96" 
SOLUTIONTIME=     0.09500000,STRANDID=   1
  0.500000000000000       0.454810956800000       0.000000000000000E+000
 -0.941438400000001       2.000000000000000E-002
 VARIABLES= X1,X2,Y1,Y2,R
ZONE T="   97" 
SOLUTIONTIME=     0.09600000,STRANDID=   1
  0.500000000000000       0.453864615075000       0.000000000000000E+000
 -0.951245050000001       2.000000000000000E-002
 VARIABLES= X1,X2,Y1,Y2,R
ZONE T="   98" 
SOLUTIONTIME=     0.09700000,STRANDID=   1
  0.500000000000000       0.452908466700000       0.000000000000000E+000
 -0.961051700000001       2.000000000000000E-002
 VARIABLES= X1,X2,Y1,Y2,R
ZONE T="   99" 
SOLUTIONTIME=     0.09800000,STRANDID=   1
  0.500000000000000       0.451942511675000       0.000000000000000E+000
 -0.970858350000001       2.000000000000000E-002
 VARIABLES= X1,X2,Y1,Y2,R
ZONE T="  100" 
SOLUTIONTIME=     0.09900000,STRANDID=   1
  0.500000000000000       0.450966750000000       0.000000000000000E+000
 -0.980665000000001       2.000000000000000E-002
 VARIABLES= X1,X2,Y1,Y2,R
ZONE T="  101" 
SOLUTIONTIME=     0.10000000,STRANDID=   1
  0.500000000000000       0.449981181675000       0.000000000000000E+000
 -0.990471650000001       2.000000000000000E-002
 VARIABLES= X1,X2,Y1,Y2,R
ZONE T="  102" 
SOLUTIONTIME=     0.10100000,STRANDID=   1
  0.500000000000000       0.448985806700000       0.000000000000000E+000
  -1.00027830000000       2.000000000000000E-002
 VARIABLES= X1,X2,Y1,Y2,R
ZONE T="  103" 
SOLUTIONTIME=     0.10200000,STRANDID=   1
  0.500000000000000       0.447980625075000       0.000000000000000E+000
  -1.01008495000000       2.000000000000000E-002
 VARIABLES= X1,X2,Y1,Y2,R
ZONE T="  104" 
SOLUTIONTIME=     0.10300000,STRANDID=   1
  0.500000000000000       0.446965636800000       0.000000000000000E+000
  -1.01989160000000       2.000000000000000E-002
 VARIABLES= X1,X2,Y1,Y2,R
ZONE T="  105" 
SOLUTIONTIME=     0.10400000,STRANDID=   1
  0.500000000000000       0.445940841875000       0.000000000000000E+000
  -1.02969825000000       2.000000000000000E-002
 VARIABLES= X1,X2,Y1,Y2,R
ZONE T="  106" 
SOLUTIONTIME=     0.10500000,STRANDID=   1
  0.500000000000000       0.444906240300000       0.000000000000000E+000
  -1.03950490000000       2.000000000000000E-002
 VARIABLES= X1,X2,Y1,Y2,R
ZONE T="  107" 
SOLUTIONTIME=     0.10600000,STRANDID=   1
  0.500000000000000       0.443861832075000       0.000000000000000E+000
  -1.04931155000000       2.000000000000000E-002
 VARIABLES= X1,X2,Y1,Y2,R
ZONE T="  108" 
SOLUTIONTIME=     0.10700000,STRANDID=   1
  0.500000000000000       0.442807617200000       0.000000000000000E+000
  -1.05911820000000       2.000000000000000E-002
 VARIABLES= X1,X2,Y1,Y2,R
ZONE T="  109" 
SOLUTIONTIME=     0.10800000,STRANDID=   1
  0.500000000000000       0.441743595675000       0.000000000000000E+000
  -1.06892485000000       2.000000000000000E-002
 VARIABLES= X1,X2,Y1,Y2,R
ZONE T="  110" 
SOLUTIONTIME=     0.10900000,STRANDID=   1
  0.500000000000000       0.440669767500000       0.000000000000000E+000
  -1.07873150000000       2.000000000000000E-002
 VARIABLES= X1,X2,Y1,Y2,R
ZONE T="  111" 
SOLUTIONTIME=     0.11000000,STRANDID=   1
  0.500000000000000       0.439586132675000       0.000000000000000E+000
  -1.08853815000000       2.000000000000000E-002
 VARIABLES= X1,X2,Y1,Y2,R
ZONE T="  112" 
SOLUTIONTIME=     0.11100000,STRANDID=   1
  0.500000000000000       0.438492691200000       0.000000000000000E+000
  -1.09834480000000       2.000000000000000E-002
 VARIABLES= X1,X2,Y1,Y2,R
ZONE T="  113" 
SOLUTIONTIME=     0.11200000,STRANDID=   1
  0.500000000000000       0.437389443075000       0.000000000000000E+000
  -1.10815145000000       2.000000000000000E-002
 VARIABLES= X1,X2,Y1,Y2,R
ZONE T="  114" 
SOLUTIONTIME=     0.11300000,STRANDID=   1
  0.500000000000000       0.436276388300000       0.000000000000000E+000
  -1.11795810000000       2.000000000000000E-002
 VARIABLES= X1,X2,Y1,Y2,R
ZONE T="  115" 
SOLUTIONTIME=     0.11400000,STRANDID=   1
  0.500000000000000       0.435153526875000       0.000000000000000E+000
  -1.12776475000000       2.000000000000000E-002
 VARIABLES= X1,X2,Y1,Y2,R
ZONE T="  116" 
SOLUTIONTIME=     0.11500000,STRANDID=   1
  0.500000000000000       0.434020858800000       0.000000000000000E+000
  -1.13757140000000       2.000000000000000E-002
 VARIABLES= X1,X2,Y1,Y2,R
ZONE T="  117" 
SOLUTIONTIME=     0.11600000,STRANDID=   1
  0.500000000000000       0.432878384075000       0.000000000000000E+000
  -1.14737805000000       2.000000000000000E-002
 VARIABLES= X1,X2,Y1,Y2,R
ZONE T="  118" 
SOLUTIONTIME=     0.11700000,STRANDID=   1
  0.500000000000000       0.431726102700000       0.000000000000000E+000
  -1.15718470000000       2.000000000000000E-002
 VARIABLES= X1,X2,Y1,Y2,R
ZONE T="  119" 
SOLUTIONTIME=     0.11800000,STRANDID=   1
  0.500000000000000       0.430564014675000       0.000000000000000E+000
  -1.16699135000000       2.000000000000000E-002
 VARIABLES= X1,X2,Y1,Y2,R
ZONE T="  120" 
SOLUTIONTIME=     0.11900000,STRANDID=   1
  0.500000000000000       0.429392120000000       0.000000000000000E+000
  -1.17679800000000       2.000000000000000E-002
 VARIABLES= X1,X2,Y1,Y2,R
ZONE T="  121" 
SOLUTIONTIME=     0.12000000,STRANDID=   1
  0.500000000000000       0.428210418675000       0.000000000000000E+000
  -1.18660465000000       2.000000000000000E-002
 VARIABLES= X1,X2,Y1,Y2,R
ZONE T="  122" 
SOLUTIONTIME=     0.12100000,STRANDID=   1
  0.500000000000000       0.427018910700000       0.000000000000000E+000
  -1.19641130000000       2.000000000000000E-002
 VARIABLES= X1,X2,Y1,Y2,R
ZONE T="  123" 
SOLUTIONTIME=     0.12200000,STRANDID=   1
  0.500000000000000       0.425817596075000       0.000000000000000E+000
  -1.20621795000000       2.000000000000000E-002
 VARIABLES= X1,X2,Y1,Y2,R
ZONE T="  124" 
SOLUTIONTIME=     0.12300000,STRANDID=   1
  0.500000000000000       0.424606474800000       0.000000000000000E+000
  -1.21602460000000       2.000000000000000E-002
 VARIABLES= X1,X2,Y1,Y2,R
ZONE T="  125" 
SOLUTIONTIME=     0.12400000,STRANDID=   1
  0.500000000000000       0.423385546875000       0.000000000000000E+000
  -1.22583125000000       2.000000000000000E-002
 VARIABLES= X1,X2,Y1,Y2,R
ZONE T="  126" 
SOLUTIONTIME=     0.12500000,STRANDID=   1
  0.500000000000000       0.422154812300000       0.000000000000000E+000
  -1.23563790000000       2.000000000000000E-002
 VARIABLES= X1,X2,Y1,Y2,R
ZONE T="  127" 
SOLUTIONTIME=     0.12600000,STRANDID=   1
  0.500000000000000       0.420914271075000       0.000000000000000E+000
  -1.24544455000000       2.000000000000000E-002
 VARIABLES= X1,X2,Y1,Y2,R
ZONE T="  128" 
SOLUTIONTIME=     0.12700000,STRANDID=   1
  0.500000000000000       0.419663923200000       0.000000000000000E+000
  -1.25525120000000       2.000000000000000E-002
 VARIABLES= X1,X2,Y1,Y2,R
ZONE T="  129" 
SOLUTIONTIME=     0.12800000,STRANDID=   1
  0.500000000000000       0.418403768675000       0.000000000000000E+000
  -1.26505785000000       2.000000000000000E-002
 VARIABLES= X1,X2,Y1,Y2,R
ZONE T="  130" 
SOLUTIONTIME=     0.12900000,STRANDID=   1
  0.500000000000000       0.417133807500000       0.000000000000000E+000
  -1.27486450000000       2.000000000000000E-002
 VARIABLES= X1,X2,Y1,Y2,R
ZONE T="  131" 
SOLUTIONTIME=     0.13000000,STRANDID=   1
  0.500000000000000       0.415854039675000       0.000000000000000E+000
  -1.28467115000000       2.000000000000000E-002
 VARIABLES= X1,X2,Y1,Y2,R
ZONE T="  132" 
SOLUTIONTIME=     0.13100000,STRANDID=   1
  0.500000000000000       0.414564465200000       0.000000000000000E+000
  -1.29447780000000       2.000000000000000E-002
 VARIABLES= X1,X2,Y1,Y2,R
ZONE T="  133" 
SOLUTIONTIME=     0.13200000,STRANDID=   1
  0.500000000000000       0.413265084075000       0.000000000000000E+000
  -1.30428445000000       2.000000000000000E-002
 VARIABLES= X1,X2,Y1,Y2,R
ZONE T="  134" 
SOLUTIONTIME=     0.13300000,STRANDID=   1
  0.500000000000000       0.411955896300000       0.000000000000000E+000
  -1.31409110000000       2.000000000000000E-002
 VARIABLES= X1,X2,Y1,Y2,R
ZONE T="  135" 
SOLUTIONTIME=     0.13400000,STRANDID=   1
  0.500000000000000       0.410636901875000       0.000000000000000E+000
  -1.32389775000000       2.000000000000000E-002
 VARIABLES= X1,X2,Y1,Y2,R
ZONE T="  136" 
SOLUTIONTIME=     0.13500000,STRANDID=   1
  0.500000000000000       0.409308100800000       0.000000000000000E+000
  -1.33370440000000       2.000000000000000E-002
 VARIABLES= X1,X2,Y1,Y2,R
ZONE T="  137" 
SOLUTIONTIME=     0.13600000,STRANDID=   1
  0.500000000000000       0.407969493075000       0.000000000000000E+000
  -1.34351105000000       2.000000000000000E-002
 VARIABLES= X1,X2,Y1,Y2,R
ZONE T="  138" 
SOLUTIONTIME=     0.13700000,STRANDID=   1
  0.500000000000000       0.406621078700000       0.000000000000000E+000
  -1.35331770000000       2.000000000000000E-002
 VARIABLES= X1,X2,Y1,Y2,R
ZONE T="  139" 
SOLUTIONTIME=     0.13800000,STRANDID=   1
  0.500000000000000       0.405262857675000       0.000000000000000E+000
  -1.36312435000000       2.000000000000000E-002
 VARIABLES= X1,X2,Y1,Y2,R
ZONE T="  140" 
SOLUTIONTIME=     0.13900000,STRANDID=   1
  0.500000000000000       0.403894830000000       0.000000000000000E+000
  -1.37293100000000       2.000000000000000E-002
 VARIABLES= X1,X2,Y1,Y2,R
ZONE T="  141" 
SOLUTIONTIME=     0.14000000,STRANDID=   1
  0.500000000000000       0.402516995675000       0.000000000000000E+000
  -1.38273765000000       2.000000000000000E-002
 VARIABLES= X1,X2,Y1,Y2,R
ZONE T="  142" 
SOLUTIONTIME=     0.14100000,STRANDID=   1
  0.500000000000000       0.401129354700000       0.000000000000000E+000
  -1.39254430000000       2.000000000000000E-002
 VARIABLES= X1,X2,Y1,Y2,R
ZONE T="  143" 
SOLUTIONTIME=     0.14200000,STRANDID=   1
  0.500000000000000       0.399731907075000       0.000000000000000E+000
  -1.40235095000000       2.000000000000000E-002
 VARIABLES= X1,X2,Y1,Y2,R
ZONE T="  144" 
SOLUTIONTIME=     0.14300000,STRANDID=   1
  0.500000000000000       0.398324652800000       0.000000000000000E+000
  -1.41215760000000       2.000000000000000E-002
 VARIABLES= X1,X2,Y1,Y2,R
ZONE T="  145" 
SOLUTIONTIME=     0.14400000,STRANDID=   1
  0.500000000000000       0.396907591875000       0.000000000000000E+000