 VARIABLES= X1,X2,Y1,Y2,R,ID,RK
ZONE T="    2" 
SOLUTIONTIME=     0.00100000,STRANDID=   1
  0.50000000E+00  0.49997058E+00  0.00000000E+00 -0.19613300E-01  0.20000000E-01    1    0
 VARIABLES= X1,X2,Y1,Y2,R,ID,RK
ZONE T="    4" 
SOLUTIONTIME=     0.00300000,STRANDID=   1
  0.50000000E+00  0.49990193E+00  0.00000000E+00 -0.39226600E-01  0.20000000E-01    1    0
 VARIABLES= X1,X2,Y1,Y2,R,ID,RK
ZONE T="    6" 
SOLUTIONTIME=     0.00500000,STRANDID=   1
  0.50000000E+00  0.49979406E+00  0.00000000E+00 -0.58839900E-01  0.20000000E-01    1    0
 VARIABLES= X1,X2,Y1,Y2,R,ID,RK
ZONE T="    8" 
SOLUTIONTIME=     0.00700000,STRANDID=   1
  0.50000000E+00  0.49964696E+00  0.00000000E+00 -0.78453200E-01  0.20000000E-01    1    0
 VARIABLES= X1,X2,Y1,Y2,R,ID,RK
ZONE T="   10" 
SOLUTIONTIME=     0.00900000,STRANDID=   1
  0.50000000E+00  0.49946063E+00  0.00000000E+00 -0.98066500E-01  0.20000000E-01    1    0
 VARIABLES= X1,X2,Y1,Y2,R,ID,RK
ZONE T="   12" 
SOLUTIONTIME=     0.01100000,STRANDID=   1
  0.50000000E+00  0.49923508E+00  0.00000000E+00 -0.11767980E+00  0.20000000E-01    1    0
 VARIABLES= X1,X2,Y1,Y2,R,ID,RK
ZONE T="   14" 
SOLUTIONTIME=     0.01300000,STRANDID=   1
  0.50000000E+00  0.49897030E+00  0.00000000E+00 -0.13729310E+00  0.20000000E-01    1    0
 VARIABLES= X1,X2,Y1,Y2,R,ID,RK
ZONE T="   16" 
SOLUTIONTIME=     0.01500000,STRANDID=   1
  0.50000000E+00  0.49866630E+00  0.00000000E+00 -0.15690640E+00  0.20000000E-01    1    0
 VARIABLES= X1,X2,Y1,Y2,R,ID,RK
ZONE T="   18" 
SOLUTIONTIME=     0.01700000,STRANDID=   1
  0.50000000E+00  0.49832306E+00  0.00000000E+00 -0.17651970E+00  0.20000000E-01    1    0
 VARIABLES= X1,X2,Y1,Y2,R,ID,RK
ZONE T="   20" 
SOLUTIONTIME=     0.01900000,STRANDID=   1
  0.50000000E+00  0.49794060E+00  0.00000000E+00 -0.19613300E+00  0.20000000E-01    1    0
 VARIABLES= X1,X2,Y1,Y2,R,ID,RK
ZONE T="   22" 
SOLUTIONTIME=     0.02100000,STRANDID=   1
  0.50000000E+00  0.49751892E+00  0.00000000E+00 -0.21574630E+00  0.20000000E-01    1    0
 VARIABLES= X1,X2,Y1,Y2,R,ID,RK
ZONE T="   24" 
SOLUTIONTIME=     0.02300000,STRANDID=   1
  0.50000000E+00  0.49705801E+00  0.00000000E+00 -0.23535960E+00  0.20000000E-01    1    0
 VARIABLES= X1,X2,Y1,Y2,R,ID,RK
ZONE T="   26" 
SOLUTIONTIME=     0.02500000,STRANDID=   1
  0.50000000E+00  0.49655787E+00  0.00000000E+00 -0.25497290E+00  0.20000000E-01    1    0
 VARIABLES= X1,X2,Y1,Y2,R,ID,RK
ZONE T="   28" 
SOLUTIONTIME=     0.02700000,STRANDID=   1
  0.50000000E+00  0.49601850E+00  0.00000000E+00 -0.27458620E+00  0.20000000E-01    1    0
 VARIABLES= X1,X2,Y1,Y2,R,ID,RK
ZONE T="   30" 
SOLUTIONTIME=     0.02900000,STRANDID=   1
  0.50000000E+00  0.49543991E+00  0.00000000E+00 -0.29419950E+00  0.20000000E-01    1    0
 VARIABLES= X1,X2,Y1,Y2,R,ID,RK
ZONE T="   32" 
SOLUTIONTIME=     0.03100000,STRANDID=   1
  0.50000000E+00  0.49482209E+00  0.00000000E+00 -0.31381280E+00  0.20000000E-01    1    0
 VARIABLES= X1,X2,Y1,Y2,R,ID,RK
ZONE T="   34" 
SOLUTIONTIME=     0.03300000,STRANDID=   1
  0.50000000E+00  0.49416504E+00  0.00000000E+00 -0.33342610E+00  0.20000000E-01    1    0
 VARIABLES= X1,X2,Y1,Y2,R,ID,RK
ZONE T="   36" 
SOLUTIONTIME=     0.03500000,STRANDID=   1
  0.50000000E+00  0.49346877E+00  0.00000000E+00 -0.35303940E+00  0.20000000E-01    1    0
 VARIABLES= X1,X2,Y1,Y2,R,ID,RK
ZONE T="   38" 
SOLUTIONTIME=     0.03700000,STRANDID=   1
  0.50000000E+00  0.49273327E+00  0.00000000E+00 -0.37265270E+00  0.20000000E-01    1    0
 VARIABLES= X1,X2,Y1,Y2,R,ID,RK
ZONE T="   40" 
SOLUTIONTIME=     0.03900000,STRANDID=   1
  0.50000000E+00  0.49195855E+00  0.00000000E+00 -0.39226600E+00  0.20000000E-01    1    0
 VARIABLES= X1,X2,Y1,Y2,R,ID,RK
ZONE T="   42" 
SOLUTIONTIME=     0.04100000,STRANDID=   1
  0.50000000E+00  0.49114460E+00  0.00000000E+00 -0.41187930E+00  0.20000000E-01    1    0
 VARIABLES= X1,X2,Y1,Y2,R,ID,RK
ZONE T="   44" 
SOLUTIONTIME=     0.04300000,STRANDID=   1
  0.50000000E+00  0.49029142E+00  0.00000000E+00 -0.43149260E+00  0.20000000E-01    1    0
 VARIABLES= X1,X2,Y1,Y2,R,ID,RK
ZONE T="   46" 
SOLUTIONTIME=     0.04500000,STRANDID=   1
  0.50000000E+00  0.48939901E+00  0.00000000E+00 -0.45110590E+00  0.20000000E-01    1    0
 VARIABLES= X1,X2,Y1,Y2,R,ID,RK
ZONE T="   48" 
SOLUTIONTIME=     0.04700000,STRANDID=   1
  0.50000000E+00  0.48846738E+00  0.00000000E+00 -0.47071920E+00  0.20000000E-01    1    0
 VARIABLES= X1,X2,Y1,Y2,R,ID,RK
ZONE T="   50" 
SOLUTIONTIME=     0.04900000,STRANDID=   1
  0.50000000E+00  0.48749652E+00  0.00000000E+00 -0.49033250E+00  0.20000000E-01    1    0
 VARIABLES= X1,X2,Y1,Y2,R,ID,RK
ZONE T="   52" 
SOLUTIONTIME=     0.05100000,STRANDID=   1
  0.50000000E+00  0.48648644E+00  0.00000000E+00 -0.50994580E+00  0.20000000E-01    1    0
 VARIABLES= X1,X2,Y1,Y2,R,ID,RK
ZONE T="   54" 
SOLUTIONTIME=     0.05300000,STRANDID=   1
  0.50000000E+00  0.48543712E+00  0.00000000E+00 -0.52955910E+00  0.20000000E-01    1    0
 VARIABLES= X1,X2,Y1,Y2,R,ID,RK
ZONE T="   56" 
SOLUTIONTIME=     0.05500000,STRANDID=   1
  0.50000000E+00  0.48434859E+00  0.00000000E+00 -0.54917240E+00  0.20000000E-01    1    0
 VARIABLES= X1,X2,Y1,Y2,R,ID,RK
ZONE T="   58" 
SOLUTIONTIME=     0.05700000,STRANDID=   1
  0.50000000E+00  0.48322082E+00  0.00000000E+00 -0.56878570E+00  0.20000000E-01    1    0
 VARIABLES= X1,X2,Y1,Y2,R,ID,RK
ZONE T="   60" 
SOLUTIONTIME=     0.05900000,STRANDID=   1
  0.50000000E+00  0.48205383E+00  0.00000000E+00 -0.58839900E+00  0.20000000E-01    1    0
 VARIABLES= X1,X2,Y1,Y2,R,ID,RK
ZONE T="   62" 
SOLUTIONTIME=     0.06100000,STRANDID=   1
  0.50000000E+00  0.48084761E+00  0.00000000E+00 -0.60801230E+00  0.20000000E-01    1    0
 VARIABLES= X1,X2,Y1,Y2,R,ID,RK
ZONE T="   64" 
SOLUTIONTIME=     0.06300000,STRANDID=   1
  0.50000000E+00  0.47960217E+00  0.00000000E+00 -0.62762560E+00  0.20000000E-01    1    0
 VARIABLES= X1,X2,Y1,Y2,R,ID,RK
ZONE T="   66" 
SOLUTIONTIME=     0.06500000,STRANDID=   1
  0.50000000E+00  0.47831750E+00  0.00000000E+00 -0.64723890E+00  0.20000000E-01    1    0
 VARIABLES= X1,X2,Y1,Y2,R,ID,RK
ZONE T="   68" 
SOLUTIONTIME=     0.06700000,STRANDID=   1
  0.50000000E+00  0.47699360E+00  0.00000000E+00 -0.66685220E+00  0.20000000E-01    1    0
 VARIABLES= X1,X2,Y1,Y2,R,ID,RK
ZONE T="   70" 
SOLUTIONTIME=     0.06900000,STRANDID=   1
  0.50000000E+00  0.47563047E+00  0.00000000E+00 -0.68646550E+00  0.20000000E-01    1    0
 VARIABLES= X1,X2,Y1,Y2,R,ID,RK
ZONE T="   72" 
SOLUTIONTIME=     0.07100000,STRANDID=   1
  0.50000000E+00  0.47422812E+00  0.00000000E+00 -0.70607880E+00  0.20000000E-01    1    0
 VARIABLES= X1,X2,Y1,Y2,R,ID,RK
ZONE T="   74" 
SOLUTIONTIME=     0.07300000,STRANDID=   1
  0.50000000E+00  0.47278655E+00  0.00000000E+00 -0.72569210E+00  0.20000000E-01    1    0
 VARIABLES= X1,X2,Y1,Y2,R,ID,RK
ZONE T="   76" 
SOLUTIONTIME=     0.07500000,STRANDID=   1
  0.50000000E+00  0.47130574E+00  0.00000000E+00 -0.74530540E+00  0.20000000E-01    1    0
 VARIABLES= X1,X2,Y1,Y2,R,ID,RK
ZONE T="   78" 
SOLUTIONTIME=     0.07700000,STRANDID=   1
  0.50000000E+00  0.46978571E+00  0.00000000E+00 -0.76491870E+00  0.20000000E-01    1    0
 VARIABLES= X1,X2,Y1,Y2,R,ID,RK
ZONE T="   80" 
SOLUTIONTIME=     0.07900000,STRANDID=   1
  0.50000000E+00  0.46822645E+00  0.00000000E+00 -0.78453200E+00  0.20000000E-01    1    0
 VARIABLES= X1,X2,Y1,Y2,R,ID,RK
ZONE T="   82" 
SOLUTIONTIME=     0.08100000,STRANDID=   1
  0.50000000E+00  0.46662797E+00  0.00000000E+00 -0.80414530E+00  0.20000000E-01    1    0
 VARIABLES= X1,X2,Y1,Y2,R,ID,RK
ZONE T="   84" 
SOLUTIONTIME=     0.08300000,STRANDID=   1
  0.50000000E+00  0.46499026E+00  0.00000000E+00 -0.82375860E+00  0.20000000E-01    1    0
 VARIABLES= X1,X2,Y1,Y2,R,ID,RK
ZONE T="   86" 
SOLUTIONTIME=     0.08500000,STRANDID=   1
  0.50000000E+00  0.46331332E+00  0.00000000E+00 -0.84337190E+00  0.20000000E-01    1    0
 VARIABLES= X1,X2,Y1,Y2,R,ID,RK
ZONE T="   88" 
SOLUTIONTIME=     0.08700000,STRANDID=   1
  0.50000000E+00  0.46159716E+00  0.00000000E+00 -0.86298520E+00  0.20000000E-01    1    0
 VARIABLES= X1,X2,Y1,Y2,R,ID,RK
ZONE T="   90" 
SOLUTIONTIME=     0.08900000,STRANDID=   1
  0.50000000E+00  0.45984177E+00  0.00000000E+00 -0.88259850E+00  0.20000000E-01    1    0
 VARIABLES= X1,X2,Y1,Y2,R,ID,RK
ZONE T="   92" 
SOLUTIONTIME=     0.09100000,STRANDID=   1
  0.50000000E+00  0.45804715E+00  0.00000000E+00 -0.90221180E+00  0.20000000E-01    1    0
 VARIABLES= X1,X2,Y1,Y2,R,ID,RK
ZONE T="   94" 
SOLUTIONTIME=     0.09300000,STRANDID=   1
  0.50000000E+00  0.45621331E+00  0.00000000E+00 -0.92182510E+00  0.20000000E-01    1    0
 VARIABLES= X1,X2,Y1,Y2,R,ID,RK
ZONE T="   96" 
SOLUTIONTIME=     0.09500000,STRANDID=   1
  0.50000000E+00  0.45434024E+00  0.00000000E+00 -0.94143840E+00  0.20000000E-01    1    0
 VARIABLES= X1,X2,Y1,Y2,R,ID,RK
ZONE T="   98" 
SOLUTIONTIME=     0.09700000,STRANDID=   1
  0.50000000E+00  0.45242794E+00  0.00000000E+00 -0.96105170E+00  0.20000000E-01    1    0
 VARIABLES= X1,X2,Y1,Y2,R,ID,RK
ZONE T="  100" 
SOLUTIONTIME=     0.09900000,STRANDID=   1
  0.50000000E+00  0.45047642E+00  0.00000000E+00 -0.98066500E+00  0.20000000E-01    1    0
 VARIABLES= X1,X2,Y1,Y2,R,ID,RK
ZONE T="  102" 
SOLUTIONTIME=     0.10100000,STRANDID=   1
  0.50000000E+00  0.44848567E+00  0.00000000E+00 -0.10002783E+01  0.20000000E-01    1    0
 VARIABLES= X1,X2,Y1,Y2,R,ID,RK
ZONE T="  104" 
SOLUTIONTIME=     0.10300000,STRANDID=   1
  0.50000000E+00  0.44645569E+00  0.00000000E+00 -0.10198916E+01  0.20000000E-01    1    0
 VARIABLES= X1,X2,Y1,Y2,R,ID,RK
ZONE T="  106" 
SOLUTIONTIME=     0.10500000,STRANDID=   1
  0.50000000E+00  0.44438649E+00  0.00000000E+00 -0.10395049E+01  0.20000000E-01    1    0
 VARIABLES= X1,X2,Y1,Y2,R,ID,RK
ZONE T="  108" 
SOLUTIONTIME=     0.10700000,STRANDID=   1
  0.50000000E+00  0.44227806E+00  0.00000000E+00 -0.10591182E+01  0.20000000E-01    1    0
 VARIABLES= X1,X2,Y1,Y2,R,ID,RK
ZONE T="  110" 
SOLUTIONTIME=     0.10900000,STRANDID=   1
  0.50000000E+00  0.44013040E+00  0.00000000E+00 -0.10787315E+01  0.20000000E-01    1    0
 VARIABLES= X1,X2,Y1,Y2,R,ID,RK
ZONE T="  112" 
SOLUTIONTIME=     0.11100000,STRANDID=   1
  0.50000000E+00  0.43794352E+00  0.00000000E+00 -0.10983448E+01  0.20000000E-01    1    0
 VARIABLES= X1,X2,Y1,Y2,R,ID,RK
ZONE T="  114" 
SOLUTIONTIME=     0.11300000,STRANDID=   1
  0.50000000E+00  0.43571741E+00  0.00000000E+00 -0.11179581E+01  0.20000000E-01    1    0
 VARIABLES= X1,X2,Y1,Y2,R,ID,RK
ZONE T="  116" 
SOLUTIONTIME=     0.11500000,STRANDID=   1
  0.50000000E+00  0.43345207E+00  0.00000000E+00 -0.11375714E+01  0.20000000E-01    1    0
 VARIABLES= X1,X2,Y1,Y2,R,ID,RK
ZONE T="  118" 
SOLUTIONTIME=     0.11700000,STRANDID=   1
  0.50000000E+00  0.43114751E+00  0.00000000E+00 -0.11571847E+01  0.20000000E-01    1    0
 VARIABLES= X1,X2,Y1,Y2,R,ID,RK
ZONE T="  120" 
SOLUTIONTIME=     0.11900000,STRANDID=   1
  0.50000000E+00  0.42880372E+00  0.00000000E+00 -0.11767980E+01  0.20000000E-01    1    0
 VARIABLES= X1,X2,Y1,Y2,R,ID,RK
ZONE T="  122" 
SOLUTIONTIME=     0.12100000,STRANDID=   1
  0.50000000E+00  0.42642071E+00  0.00000000E+00 -0.11964113E+01  0.20000000E-01    1    0
 VARIABLES= X1,X2,Y1,Y2,R,ID,RK
ZONE T="  124" 
SOLUTIONTIME=     0.12300000,STRANDID=   1
  0.50000000E+00  0.42399846E+00  0.00000000E+00 -0.12160246E+01  0.20000000E-01    1    0
 VARIABLES= X1,X2,Y1,Y2,R,ID,RK
ZONE T="  126" 
SOLUTIONTIME=     0.12500000,STRANDID=   1
  0.50000000E+00  0.42153699E+00  0.00000000E+00 -0.12356379E+01  0.20000000E-01    1    0
 VARIABLES= X1,X2,Y1,Y2,R,ID,RK
ZONE T="  128" 
SOLUTIONTIME=     0.12700000,STRANDID=   1
  0.50000000E+00  0.41903630E+00  0.00000000E+00 -0.12552512E+01  0.20000000E-01    1    0
 VARIABLES= X1,X2,Y1,Y2,R,ID,RK
ZONE T="  130" 
SOLUTIONTIME=     0.12900000,STRANDID=   1
  0.50000000E+00  0.41649638E+00  0.00000000E+00 -0.12748645E+01  0.20000000E-01    1    0
 VARIABLES= X1,X2,Y1,Y2,R,ID,RK
ZONE T="  132" 
SOLUTIONTIME=     0.13100000,STRANDID=   1
  0.50000000E+00  0.41391723E+00  0.00000000E+00 -0.12944778E+01  0.20000000E-01    1    0
 VARIABLES= X1,X2,Y1,Y2,R,ID,RK
ZONE T="  134" 
SOLUTIONTIME=     0.13300000,STRANDID=   1
  0.50000000E+00  0.41129885E+00  0.00000000E+00 -0.13140911E+01  0.20000000E-01    1    0
 VARIABLES= X1,X2,Y1,Y2,R,ID,RK
ZONE T="  136" 
SOLUTIONTIME=     0.13500000,STRANDID=   1
  0.50000000E+00  0.40864125E+00  0.00000000E+00 -0.13337044E+01  0.20000000E-01    1    0
 VARIABLES= X1,X2,Y1,Y2,R,ID,RK
ZONE T="  138" 
SOLUTIONTIME=     0.13700000,STRANDID=   1
  0.50000000E+00  0.40594442E+00  0.00000000E+00 -0.13533177E+01  0.20000000E-01    1    0
 VARIABLES= X1,X2,Y1,Y2,R,ID,RK
ZONE T="  140" 
SOLUTIONTIME=     0.13900000,STRANDID=   1
  0.50000000E+00  0.40320836E+00  0.00000000E+00 -0.13729310E+01  0.20000000E-01    1    0
 VARIABLES= X1,X2,Y1,Y2,R,ID,RK
ZONE T="  142" 
SOLUTIONTIME=     0.14100000,STRANDID=   1
  0.50000000E+00  0.40043308E+00  0.00000000E+00 -0.13925443E+01  0.20000000E-01    1    0
 VARIABLES= X1,X2,Y1,Y2,R,ID,RK
ZONE T="  144" 
SOLUTIONTIME=     0.14300000,STRANDID=   1
  0.50000000E+00  0.39761857E+00  0.00000000E+00 -0.14121576E+01  0.20000000E-01    1    0
 VARIABLES= X1,X2,Y1,Y2,R,ID,RK
ZONE T="  146" 
SOLUTIONTIME=     0.14500000,STRANDID=   1
  0.50000000E+00  0.39476484E+00  0.00000000E+00 -0.14317709E+01  0.20000000E-01    1    0
 VARIABLES= X1,X2,Y1,Y2,R,ID,RK
ZONE T="  148" 
SOLUTIONTIME=     0.14700000,STRANDID=   1
  0.50000000E+00  0.39187188E+00  0.00000000E+00 -0.14513842E+01  0.20000000E-01    1    0
 VARIABLES= X1,X2,Y1,Y2,R,ID,RK
ZONE T="  150" 
SOLUTIONTIME=     0.14900000,STRANDID=   1
  0.50000000E+00  0.38893969E+00  0.00000000E+00 -0.14709975E+01  0.20000000E-01    1    0
 VARIABLES= X1,X2,Y1,Y2,R,ID,RK
ZONE T="  152" 
SOLUTIONTIME=     0.15100000,STRANDID=   1
  0.50000000E+00  0.38596827E+00  0.00000000E+00 -0.14906108E+01  0.20000000E-01    1    0
 VARIABLES= X1,X2,Y1,Y2,R,ID,RK
ZONE T="  154" 
SOLUTIONTIME=     0.15300000,STRANDID=   1
  0.50000000E+00  0.38295763E+00  0.00000000E+00 -0.15102241E+01  0.20000000E-01    1    0
 VARIABLES= X1,X2,Y1,Y2,R,ID,RK
ZONE T="  156" 
SOLUTIONTIME=     0.15500000,STRANDID=   1
  0.50000000E+00  0.37990776E+00  0.00000000E+00 -0.15298374E+01  0.20000000E-01    1    0
 VARIABLES= X1,X2,Y1,Y2,R,ID,RK
ZONE T="  158" 
SOLUTIONTIME=     0.15700000,STRANDID=   1
  0.50000000E+00  0.37681867E+00  0.00000000E+00 -0.15494507E+01  0.20000000E-01    1    0
 VARIABLES= X1,X2,Y1,Y2,R,ID,RK
ZONE T="  160" 
SOLUTIONTIME=     0.15900000,STRANDID=   1
  0.50000000E+00  0.37369035E+00  0.00000000E+00 -0.15690640E+01  0.20000000E-01    1    0
 VARIABLES= X1,X2,Y1,Y2,R,ID,RK
ZONE T="  162" 
SOLUTIONTIME=     0.16100000,STRANDID=   1
  0.50000000E+00  0.37052280E+00  0.00000000E+00 -0.15886773E+01  0.20000000E-01    1    0
 VARIABLES= X1,X2,Y1,Y2,R,ID,RK
ZONE T="  164" 
SOLUTIONTIME=     0.16300000,STRANDID=   1
  0.50000000E+00  0.36731603E+00  0.00000000E+00 -0.16082906E+01  0.20000000E-01    1    0
 VARIABLES= X1,X2,Y1,Y2,R,ID,RK
ZONE T="  166" 
SOLUTIONTIME=     0.16500000,STRANDID=   1
  0.50000000E+00  0.36407002E+00  0.00000000E+00 -0.16279039E+01  0.20000000E-01    1    0
 VARIABLES= X1,X2,Y1,Y2,R,ID,RK
ZONE T="  168" 
SOLUTIONTIME=     0.16700000,STRANDID=   1
  0.50000000E+00  0.36078480E+00  0.00000000E+00 -0.16475172E+01  0.20000000E-01    1    0
 VARIABLES= X1,X2,Y1,Y2,R,ID,RK
ZONE T="  170" 
SOLUTIONTIME=     0.16900000,STRANDID=   1
  0.50000000E+00  0.35746034E+00  0.00000000E+00 -0.16671305E+01  0.20000000E-01    1    0
 VARIABLES= X1,X2,Y1,Y2,R,ID,RK
ZONE T="  172" 
SOLUTIONTIME=     0.17100000,STRANDID=   1
  0.50000000E+00  0.35409666E+00  0.00000000E+00 -0.16867438E+01  0.20000000E-01    1    0
 VARIABLES= X1,X2,Y1,Y2,R,ID,RK
ZONE T="  174" 
SOLUTIONTIME=     0.17300000,STRANDID=   1
  0.50000000E+00  0.35069375E+00  0.00000000E+00 -0.17063571E+01  0.20000000E-01    1    0
 VARIABLES= X1,X2,Y1,Y2,R,ID,RK
ZONE T="  176" 
SOLUTIONTIME=     0.17500000,STRANDID=   1
  0.50000000E+00  0.34725162E+00  0.00000000E+00 -0.17259704E+01  0.20000000E-01    1    0
 VARIABLES= X1,X2,Y1,Y2,R,ID,RK
ZONE T="  178" 
SOLUTIONTIME=     0.17700000,STRANDID=   1
  0.50000000E+00  0.34377026E+00  0.00000000E+00 -0.17455837E+01  0.20000000E-01    1    0
 VARIABLES= X1,X2,Y1,Y2,R,ID,RK
ZONE T="  180" 
SOLUTIONTIME=     0.17900000,STRANDID=   1
  0.50000000E+00  0.34024967E+00  0.00000000E+00 -0.17651970E+01  0.20000000E-01    1    0
 VARIABLES= X1,X2,Y1,Y2,R,ID,RK
ZONE T="  182" 
SOLUTIONTIME=     0.18100000,STRANDID=   1
  0.50000000E+00  0.33668986E+00  0.00000000E+00 -0.17848103E+01  0.20000000E-01    1    0
 VARIABLES= X1,X2,Y1,Y2,R,ID,RK
ZONE T="  184" 
SOLUTIONTIME=     0.18300000,STRANDID=   1
  0.50000000E+00  0.33309082E+00  0.00000000E+00 -0.18044236E+01  0.20000000E-01    1    0
 VARIABLES= X1,X2,Y1,Y2,R,ID,RK
ZONE T="  186" 
SOLUTIONTIME=     0.18500000,STRANDID=   1
  0.50000000E+00  0.32945255E+00  0.00000000E+00 -0.18240369E+01  0.20000000E-01    1    0
 VARIABLES= X1,X2,Y1,Y2,R,ID,RK
ZONE T="  188" 
SOLUTIONTIME=     0.18700000,STRANDID=   1
  0.50000000E+00  0.32577506E+00  0.00000000E+00 -0.18436502E+01  0.20000000E-01    1    0
 VARIABLES= X1,X2,Y1,Y2,R,ID,RK
ZONE T="  190" 
SOLUTIONTIME=     0.18900000,STRANDID=   1
  0.50000000E+00  0.32205834E+00  0.00000000E+00 -0.18632635E+01  0.20000000E-01    1    0
 VARIABLES= X1,X2,Y1,Y2,R,ID,RK
ZONE T="  192" 
SOLUTIONTIME=     0.19100000,STRANDID=   1
  0.50000000E+00  0.31830239E+00  0.00000000E+00 -0.18828768E+01  0.20000000E-01    1    0
 VARIABLES= X1,X2,Y1,Y2,R,ID,RK
ZONE T="  194" 
SOLUTIONTIME=     0.19300000,STRANDID=   1
  0.50000000E+00  0.31450722E+00  0.00000000E+00 -0.19024901E+01  0.20000000E-01    1    0
 VARIABLES= X1,X2,Y1,Y2,R,ID,RK
ZONE T="  196" 
SOLUTIONTIME=     0.19500000,STRANDID=   1
  0.50000000E+00  0.31067282E+00  0.00000000E+00 -0.19221034E+01  0.20000000E-01    1    0
 VARIABLES= X1,X2,Y1,Y2,R,ID,RK
ZONE T="  198" 
SOLUTIONTIME=     0.19700000,STRANDID=   1
  0.50000000E+00  0.30679919E+00  0.00000000E+00 -0.19417167E+01  0.20000000E-01    1    0
 VARIABLES= X1,X2,Y1,Y2,R,ID,RK
ZONE T="  200" 
SOLUTIONTIME=     0.19900000,STRANDID=   1
  0.50000000E+00  0.30288633E+00  0.00000000E+00 -0.19613300E+01  0.20000000E-01    1    0
 VARIABLES= X1,X2,Y1,Y2,R,ID,RK
ZONE T="  202" 
SOLUTIONTIME=     0.20100000,STRANDID=   1
  0.50000000E+00  0.29893426E+00  0.00000000E+00 -0.19809433E+01  0.20000000E-01    1    0
 VARIABLES= X1,X2,Y1,Y2,R,ID,RK
ZONE T="  204" 
SOLUTIONTIME=     0.20300000,STRANDID=   1
  0.50000000E+00  0.29494295E+00  0.00000000E+00 -0.20005566E+01  0.20000000E-01    1    0
 VARIABLES= X1,X2,Y1,Y2,R,ID,RK
ZONE T="  206" 
SOLUTIONTIME=     0.20500000,STRANDID=   1
  0.50000000E+00  0.29091242E+00  0.00000000E+00 -0.20201699E+01  0.20000000E-01    1    0
 VARIABLES= X1,X2,Y1,Y2,R,ID,RK
ZONE T="  208" 
SOLUTIONTIME=     0.20700000,STRANDID=   1
  0.50000000E+00  0.28684266E+00  0.00000000E+00 -0.20397832E+01  0.20000000E-01    1    0
 VARIABLES= X1,X2,Y1,Y2,R,ID,RK
ZONE T="  210" 
SOLUTIONTIME=     0.20900000,STRANDID=   1
  0.50000000E+00  0.28273367E+00  0.00000000E+00 -0.20593965E+01  0.20000000E-01    1    0
 VARIABLES= X1,X2,Y1,Y2,R,ID,RK
ZONE T="  212" 
SOLUTIONTIME=     0.21100000,STRANDID=   1
  0.50000000E+00  0.27858546E+00  0.00000000E+00 -0.20790098E+01  0.20000000E-01    1    0
 VARIABLES= X1,X2,Y1,Y2,R,ID,RK
ZONE T="  214" 
SOLUTIONTIME=     0.21300000,STRANDID=   1
  0.50000000E+00  0.27439802E+00  0.00000000E+00 -0.20986231E+01  0.20000000E-01    1    0
 VARIABLES= X1,X2,Y1,Y2,R,ID,RK
ZONE T="  216" 
SOLUTIONTIME=     0.21500000,STRANDID=   1
  0.50000000E+00  0.27017135E+00  0.00000000E+00 -0.21182364E+01  0.20000000E-01    1    0
 VARIABLES= X1,X2,Y1,Y2,R,ID,RK
ZONE T="  218" 
SOLUTIONTIME=     0.21700000,STRANDID=   1
  0.50000000E+00  0.26590546E+00  0.00000000E+00 -0.21378497E+01  0.20000000E-01    1    0
 VARIABLES= X1,X2,Y1,Y2,R,ID,RK
ZONE T="  220" 
SOLUTIONTIME=     0.21900000,STRANDID=   1
  0.50000000E+00  0.26160034E+00  0.00000000E+00 -0.21574630E+01  0.20000000E-01    1    0
 VARIABLES= X1,X2,Y1,Y2,R,ID,RK
ZONE T="  222" 
SOLUTIONTIME=     0.22100000,STRANDID=   1
  0.50000000E+00  0.25725599E+00  0.00000000E+00 -0.21770763E+01  0.20000000E-01    1    0
 VARIABLES= X1,X2,Y1,Y2,R,ID,RK
ZONE T="  224" 
SOLUTIONTIME=     0.22300000,STRANDID=   1
  0.50000000E+00  0.25287242E+00  0.00000000E+00 -0.21966896E+01  0.20000000E-01    1    0
 VARIABLES= X1,X2,Y1,Y2,R,ID,RK
ZONE T="  226" 
SOLUTIONTIME=     0.22500000,STRANDID=   1
  0.50000000E+00  0.24844962E+00  0.00000000E+00 -0.22163029E+01  0.20000000E-01    1    0
 VARIABLES= X1,X2,Y1,Y2,R,ID,RK
ZONE T="  228" 
SOLUTIONTIME=     0.22700000,STRANDID=   1
  0.50000000E+00  0.24398760E+00  0.00000000E+00 -0.22359162E+01  0.20000000E-01    1    0
 VARIABLES= X1,X2,Y1,Y2,R,ID,RK
ZONE T="  230" 
SOLUTIONTIME=     0.22900000,STRANDID=   1
  0.50000000E+00  0.23948634E+00  0.00000000E+00 -0.22555295E+01  0.20000000E-01    1    0
 VARIABLES= X1,X2,Y1,Y2,R,ID,RK
ZONE T="  232" 
SOLUTIONTIME=     0.23100000,STRANDID=   1
  0.50000000E+00  0.23494586E+00  0.00000000E+00 -0.22751428E+01  0.20000000E-01    1    0
 VARIABLES= X1,X2,Y1,Y2,R,ID,RK
ZONE T="  234" 
SOLUTIONTIME=     0.23300000,STRANDID=   1
  0.50000000E+00  0.23036616E+00  0.00000000E+00 -0.22947561E+01  0.20000000E-01    1    0
 VARIABLES= X1,X2,Y1,Y2,R,ID,RK
ZONE T="  236" 
SOLUTIONTIME=     0.23500000,STRANDID=   1
  0.50000000E+00  0.22574723E+00  0.00000000E+00 -0.23143694E+01  0.20000000E-01    1    0
 VARIABLES= X1,X2,Y1,Y2,R,ID,RK
ZONE T="  238" 
SOLUTIONTIME=     0.23700000,STRANDID=   1
  0.50000000E+00  0.22108907E+00  0.00000000E+00 -0.23339827E+01  0.20000000E-01    1    0
 VARIABLES= X1,X2,Y1,Y2,R,ID,RK
ZONE T="  240" 
SOLUTIONTIME=     0.23900000,STRANDID=   1
  0.50000000E+00  0.21639168E+00  0.00000000E+00 -0.23535960E+01  0.20000000E-01    1    0
 VARIABLES= X1,X2,Y1,Y2,R,ID,RK
ZONE T="  242" 
SOLUTIONTIME=     0.24100000,STRANDID=   1
  0.50000000E+00  0.21165507E+00  0.00000000E+00 -0.23732093E+01  0.20000000E-01    1    0
 VARIABLES= X1,X2,Y1,Y2,R,ID,RK
ZONE T="  244" 
SOLUTIONTIME=     0.24300000,STRANDID=   1
  0.50000000E+00  0.20687923E+00  0.00000000E+00 -0.23928226E+01  0.20000000E-01    1    0
 VARIABLES= X1,X2,Y1,Y2,R,ID,RK
ZONE T="  246" 
SOLUTIONTIME=     0.24500000,STRANDID=   1
  0.50000000E+00  0.20206417E+00  0.00000000E+00 -0.24124359E+01  0.20000000E-01    1    0
 VARIABLES= X1,X2,Y1,Y2,R,ID,RK
ZONE T="  248" 
SOLUTIONTIME=     0.24700000,STRANDID=   1
  0.50000000E+00  0.19720987E+00  0.00000000E+00 -0.24320492E+01  0.20000000E-01    1    0
 VARIABLES= X1,X2,Y1,Y2,R,ID,RK
ZONE T="  250" 
SOLUTIONTIME=     0.24900000,STRANDID=   1
  0.50000000E+00  0.19231636E+00  0.00000000E+00 -0.24516625E+01  0.20000000E-01    1    0
 VARIABLES= X1,X2,Y1,Y2,R,ID,RK
ZONE T="  252" 
SOLUTIONTIME=     0.25100000,STRANDID=   1
  0.50000000E+00  0.18738361E+00  0.00000000E+00 -0.24712758E+01  0.20000000E-01    1    0
 VARIABLES= X1,X2,Y1,Y2,R,ID,RK
ZONE T="  254" 
SOLUTIONTIME=     0.25300000,STRANDID=   1
  0.50000000E+00  0.18241164E+00  0.00000000E+00 -0.24908891E+01  0.20000000E-01    1    0
 VARIABLES= X1,X2,Y1,Y2,R,ID,RK
ZONE T="  256" 
SOLUTIONTIME=     0.25500000,STRANDID=   1
  0.50000000E+00  0.17740044E+00  0.00000000E+00 -0.25105024E+01  0.20000000E-01    1    0
 VARIABLES= X1,X2,Y1,Y2,R,ID,RK
ZONE T="  258" 
SOLUTIONTIME=     0.25700000,STRANDID=   1
  0.50000000E+00  0.17235002E+00  0.00000000E+00 -0.25301157E+01  0.20000000E-01    1    0
 VARIABLES= X1,X2,Y1,Y2,R,ID,RK
ZONE T="  260" 
SOLUTIONTIME=     0.25900000,STRANDID=   1
  0.50000000E+00  0.16726037E+00  0.00000000E+00 -0.25497290E+01  0.20000000E-01    1    0
 VARIABLES= X1,X2,Y1,Y2,R,ID,RK
ZONE T="  262" 
SOLUTIONTIME=     0.26100000,STRANDID=   1
  0.50000000E+00  0.16213149E+00  0.00000000E+00 -0.25693423E+01  0.20000000E-01    1    0
 VARIABLES= X1,X2,Y1,Y2,R,ID,RK
ZONE T="  264" 
SOLUTIONTIME=     0.26300000,STRANDID=   1
  0.50000000E+00  0.15696338E+00  0.00000000E+00 -0.25889556E+01  0.20000000E-01    1    0
 VARIABLES= X1,X2,Y1,Y2,R,ID,RK
ZONE T="  266" 
SOLUTIONTIME=     0.26500000,STRANDID=   1
  0.50000000E+00  0.15175605E+00  0.00000000E+00 -0.26085689E+01  0.20000000E-01    1    0
 VARIABLES= X1,X2,Y1,Y2,R,ID,RK
ZONE T="  268" 
SOLUTIONTIME=     0.26700000,STRANDID=   1
  0.50000000E+00  0.14650949E+00  0.00000000E+00 -0.26281822E+01  0.20000000E-01    1    0
 VARIABLES= X1,X2,Y1,Y2,R,ID,RK
ZONE T="  270" 
SOLUTIONTIME=     0.26900000,STRANDID=   1
  0.50000000E+00  0.14122371E+00  0.00000000E+00 -0.26477955E+01  0.20000000E-01    1    0
 VARIABLES= X1,X2,Y1,Y2,R,ID,RK
ZONE T="  272" 
SOLUTIONTIME=     0.27100000,STRANDID=   1
  0.50000000E+00  0.13589870E+00  0.00000000E+00 -0.26674088E+01  0.20000000E-01    1    0
 VARIABLES= X1,X2,Y1,Y2,R,ID,RK
ZONE T="  274" 
SOLUTIONTIME=     0.27300000,STRANDID=   1
  0.50000000E+00  0.13053446E+00  0.00000000E+00 -0.26870221E+01  0.20000000E-01    1    0
 VARIABLES= X1,X2,Y1,Y2,R,ID,RK
ZONE T="  276" 
SOLUTIONTIME=     0.27500000,STRANDID=   1
  0.50000000E+00  0.12513100E+00  0.00000000E+00 -0.27066354E+01  0.20000000E-01    1    0
 VARIABLES= X1,X2,Y1,Y2,R,ID,RK
ZONE T="  278" 
SOLUTIONTIME=     0.27700000,STRANDID=   1
  0.50000000E+00  0.11968831E+00  0.00000000E+00 -0.27262487E+01  0.20000000E-01    1    0
 VARIABLES= X1,X2,Y1,Y2,R,ID,RK
ZONE T="  280" 
SOLUTIONTIME=     0.27900000,STRANDID=   1
  0.50000000E+00  0.11420639E+00  0.00000000E+00 -0.27458620E+01  0.20000000E-01    1    0
 VARIABLES= X1,X2,Y1,Y2,R,ID,RK
ZONE T="  282" 
SOLUTIONTIME=     0.28100000,STRANDID=   1
  0.50000000E+00  0.10868525E+00  0.00000000E+00 -0.27654753E+01  0.20000000E-01    1    0
 VARIABLES= X1,X2,Y1,Y2,R,ID,RK
ZONE T="  284" 
SOLUTIONTIME=     0.28300000,STRANDID=   1
  0.50000000E+00  0.10312487E+00  0.00000000E+00 -0.27850886E+01  0.20000000E-01    1    0
 VARIABLES= X1,X2,Y1,Y2,R,ID,RK
ZONE T="  286" 
SOLUTIONTIME=     0.28500000,STRANDID=   1
  0.50000000E+00  0.97525277E-01  0.00000000E+00 -0.28047019E+01  0.20000000E-01    1    0
 VARIABLES= X1,X2,Y1,Y2,R,ID,RK
ZONE T="  288" 
SOLUTIONTIME=     0.28700000,STRANDID=   1
  0.50000000E+00  0.91886454E-01  0.00000000E+00 -0.28243152E+01  0.20000000E-01    1    0
 VARIABLES= X1,X2,Y1,Y2,R,ID,RK
ZONE T="  290" 
SOLUTIONTIME=     0.28900000,STRANDID=   1
  0.50000000E+00  0.86208403E-01  0.00000000E+00 -0.28439285E+01  0.20000000E-01    1    0
 VARIABLES= X1,X2,Y1,Y2,R,ID,RK
ZONE T="  292" 
SOLUTIONTIME=     0.29100000,STRANDID=   1
  0.50000000E+00  0.80491126E-01  0.00000000E+00 -0.28635418E+01  0.20000000E-01    1    0
 VARIABLES= X1,X2,Y1,Y2,R,ID,RK
ZONE T="  294" 
SOLUTIONTIME=     0.29300000,STRANDID=   1
  0.50000000E+00  0.74734623E-01  0.00000000E+00 -0.28831551E+01  0.20000000E-01    1    0
 VARIABLES= X1,X2,Y1,Y2,R,ID,RK
ZONE T="  296" 
SOLUTIONTIME=     0.29500000,STRANDID=   1
  0.50000000E+00  0.68938893E-01  0.00000000E+00 -0.29027684E+01  0.20000000E-01    1    0
 VARIABLES= X1,X2,Y1,Y2,R,ID,RK
ZONE T="  298" 
SOLUTIONTIME=     0.29700000,STRANDID=   1
  0.50000000E+00  0.63103936E-01  0.00000000E+00 -0.29223817E+01  0.20000000E-01    1    0
 VARIABLES= X1,X2,Y1,Y2,R,ID,RK
ZONE T="  300" 
SOLUTIONTIME=     0.29900000,STRANDID=   1
  0.50000000E+00  0.57229753E-01  0.00000000E+00 -0.29419950E+01  0.20000000E-01    1    0
 VARIABLES= X1,X2,Y1,Y2,R,ID,RK
ZONE T="  302" 
SOLUTIONTIME=     0.30100000,STRANDID=   1
  0.50000000E+00  0.51316343E-01  0.00000000E+00 -0.29616083E+01  0.20000000E-01    1    0
 VARIABLES= X1,X2,Y1,Y2,R,ID,RK
ZONE T="  304" 
SOLUTIONTIME=     0.30300000,STRANDID=   1
  0.50000000E+00  0.45363706E-01  0.00000000E+00 -0.29812216E+01  0.20000000E-01    1    0
 VARIABLES= X1,X2,Y1,Y2,R,ID,RK
ZONE T="  306" 
SOLUTIONTIME=     0.30500000,STRANDID=   1
  0.50000000E+00  0.39371843E-01  0.00000000E+00 -0.30008349E+01  0.20000000E-01    1    0
 VARIABLES= X1,X2,Y1,Y2,R,ID,RK
ZONE T="  308" 
SOLUTIONTIME=     0.30700000,STRANDID=   1
  0.50000000E+00  0.33340753E-01  0.00000000E+00 -0.30204482E+01  0.20000000E-01    1    0
 VARIABLES= X1,X2,Y1,Y2,R,ID,RK
ZONE T="  310" 
SOLUTIONTIME=     0.30900000,STRANDID=   1
  0.50000000E+00  0.27270437E-01  0.00000000E+00 -0.30400615E+01  0.20000000E-01    1    0
 VARIABLES= X1,X2,Y1,Y2,R,ID,RK
ZONE T="  312" 
SOLUTIONTIME=     0.31100000,STRANDID=   1
  0.50000000E+00  0.21160894E-01  0.00000000E+00 -0.30596748E+01  0.20000000E-01    1    0
 VARIABLES= X1,X2,Y1,Y2,R,ID,RK
ZONE T="  314" 
SOLUTIONTIME=     0.31300000,STRANDID=   1
  0.50000000E+00  0.26046567E-01  0.00000000E+00  0.24379332E+01  0.20000000E-01    1    0
 VARIABLES= X1,X2,Y1,Y2,R,ID,RK
ZONE T="  316" 
SOLUTIONTIME=     0.31500000,STRANDID=   1
  0.50000000E+00  0.30893013E-01  0.00000000E+00  0.24183199E+01  0.20000000E-01    1    0
 VARIABLES= X1,X2,Y1,Y2,R,ID,RK
ZONE T="  318" 
SOLUTIONTIME=     0.31700000,STRANDID=   1
  0.50000000E+00  0.35700233E-01  0.00000000E+00  0.23987066E+01  0.20000000E-01    1    0
 VARIABLES= X1,X2,Y1,Y2,R,ID,RK
ZONE T="  320" 
SOLUTIONTIME=     0.31900000,STRANDID=   1
  0.50000000E+00  0.40468226E-01  0.00000000E+00  0.23790933E+01  0.20000000E-01    1    0
 VARIABLES= X1,X2,Y1,Y2,R,ID,RK
ZONE T="  322" 
SOLUTIONTIME=     0.32100000,STRANDID=   1
  0.50000000E+00  0.45196993E-01  0.00000000E+00  0.23594800E+01  0.20000000E-01    1    0
 VARIABLES= X1,X2,Y1,Y2,R,ID,RK
ZONE T="  324" 
SOLUTIONTIME=     0.32300000,STRANDID=   1
  0.50000000E+00  0.49886533E-01  0.00000000E+00  0.23398667E+01  0.20000000E-01    1    0
 VARIABLES= X1,X2,Y1,Y2,R,ID,RK
ZONE T="  326" 
SOLUTIONTIME=     0.32500000,STRANDID=   1
  0.50000000E+00  0.54536846E-01  0.00000000E+00  0.23202534E+01  0.20000000E-01    1    0
 VARIABLES= X1,X2,Y1,Y2,R,ID,RK
ZONE T="  328" 
SOLUTIONTIME=     0.32700000,STRANDID=   1
  0.50000000E+00  0.59147933E-01  0.00000000E+00  0.23006401E+01  0.20000000E-01    1    0
 VARIABLES= X1,X2,Y1,Y2,R,ID,RK
ZONE T="  330" 
SOLUTIONTIME=     0.32900000,STRANDID=   1