 VARIABLES= X1,X2,Y1,Y2,R,ID,RK
ZONE T="    2" 
SOLUTIONTIME=     0.00100000,STRANDID=   1
  0.87857817E+00  0.66110661E+00 -0.99770945E+00  0.00000000E+00  0.10000000E+00    1    0
  0.12080998E+00  0.66110661E+00  0.69178161E+00  0.00000000E+00  0.40000000E-01    2    0
 VARIABLES= X1,X2,Y1,Y2,R,ID,RK
ZONE T="    4" 
SOLUTIONTIME=     0.00300000,STRANDID=   1
  0.87658275E+00  0.66110661E+00 -0.99770945E+00  0.00000000E+00  0.10000000E+00    1    0
  0.12219354E+00  0.66110661E+00  0.69178161E+00  0.00000000E+00  0.40000000E-01    2    0
 VARIABLES= X1,X2,Y1,Y2,R,ID,RK
ZONE T="    6" 
SOLUTIONTIME=     0.00500000,STRANDID=   1
  0.87458733E+00  0.66110661E+00 -0.99770945E+00  0.00000000E+00  0.10000000E+00    1    0
  0.12357711E+00  0.66110661E+00  0.69178161E+00  0.00000000E+00  0.40000000E-01    2    0
 VARIABLES= X1,X2,Y1,Y2,R,ID,RK
ZONE T="    8" 
SOLUTIONTIME=     0.00700000,STRANDID=   1
  0.87259191E+00  0.66110661E+00 -0.99770945E+00  0.00000000E+00  0.10000000E+00    1    0
  0.12496067E+00  0.66110661E+00  0.69178161E+00  0.00000000E+00  0.40000000E-01    2    0
 VARIABLES= X1,X2,Y1,Y2,R,ID,RK
ZONE T="   10" 
SOLUTIONTIME=     0.00900000,STRANDID=   1
  0.87059649E+00  0.66110661E+00 -0.99770945E+00  0.00000000E+00  0.10000000E+00    1    0
  0.12634423E+00  0.66110661E+00  0.69178161E+00  0.00000000E+00  0.40000000E-01    2    0
 VARIABLES= X1,X2,Y1,Y2,R,ID,RK
ZONE T="   12" 
SOLUTIONTIME=     0.01100000,STRANDID=   1
  0.86860107E+00  0.66110661E+00 -0.99770945E+00  0.00000000E+00  0.10000000E+00    1    0
  0.12772780E+00  0.66110661E+00  0.69178161E+00  0.00000000E+00  0.40000000E-01    2    0
 VARIABLES= X1,X2,Y1,Y2,R,ID,RK
ZONE T="   14" 
SOLUTIONTIME=     0.01300000,STRANDID=   1
  0.86660565E+00  0.66110661E+00 -0.99770945E+00  0.00000000E+00  0.10000000E+00    1    0
  0.12911136E+00  0.66110661E+00  0.69178161E+00  0.00000000E+00  0.40000000E-01    2    0
 VARIABLES= X1,X2,Y1,Y2,R,ID,RK
ZONE T="   16" 
SOLUTIONTIME=     0.01500000,STRANDID=   1
  0.86461023E+00  0.66110661E+00 -0.99770945E+00  0.00000000E+00  0.10000000E+00    1    0
  0.13049492E+00  0.66110661E+00  0.69178161E+00  0.00000000E+00  0.40000000E-01    2    0
 VARIABLES= X1,X2,Y1,Y2,R,ID,RK
ZONE T="   18" 
SOLUTIONTIME=     0.01700000,STRANDID=   1
  0.86261481E+00  0.66110661E+00 -0.99770945E+00  0.00000000E+00  0.10000000E+00    1    0
  0.13187848E+00  0.66110661E+00  0.69178161E+00  0.00000000E+00  0.40000000E-01    2    0
 VARIABLES= X1,X2,Y1,Y2,R,ID,RK
ZONE T="   20" 
SOLUTIONTIME=     0.01900000,STRANDID=   1
  0.86061940E+00  0.66110661E+00 -0.99770945E+00  0.00000000E+00  0.10000000E+00    1    0
  0.13326205E+00  0.66110661E+00  0.69178161E+00  0.00000000E+00  0.40000000E-01    2    0
 VARIABLES= X1,X2,Y1,Y2,R,ID,RK
ZONE T="   22" 
SOLUTIONTIME=     0.02100000,STRANDID=   1
  0.85862398E+00  0.66110661E+00 -0.99770945E+00  0.00000000E+00  0.10000000E+00    1    0
  0.13464561E+00  0.66110661E+00  0.69178161E+00  0.00000000E+00  0.40000000E-01    2    0
 VARIABLES= X1,X2,Y1,Y2,R,ID,RK
ZONE T="   24" 
SOLUTIONTIME=     0.02300000,STRANDID=   1
  0.85662856E+00  0.66110661E+00 -0.99770945E+00  0.00000000E+00  0.10000000E+00    1    0
  0.13602917E+00  0.66110661E+00  0.69178161E+00  0.00000000E+00  0.40000000E-01    2    0
 VARIABLES= X1,X2,Y1,Y2,R,ID,RK
ZONE T="   26" 
SOLUTIONTIME=     0.02500000,STRANDID=   1
  0.85463314E+00  0.66110661E+00 -0.99770945E+00  0.00000000E+00  0.10000000E+00    1    0
  0.13741274E+00  0.66110661E+00  0.69178161E+00  0.00000000E+00  0.40000000E-01    2    0
 VARIABLES= X1,X2,Y1,Y2,R,ID,RK
ZONE T="   28" 
SOLUTIONTIME=     0.02700000,STRANDID=   1
  0.85263772E+00  0.66110661E+00 -0.99770945E+00  0.00000000E+00  0.10000000E+00    1    0
  0.13879630E+00  0.66110661E+00  0.69178161E+00  0.00000000E+00  0.40000000E-01    2    0
 VARIABLES= X1,X2,Y1,Y2,R,ID,RK
ZONE T="   30" 
SOLUTIONTIME=     0.02900000,STRANDID=   1
  0.85064230E+00  0.66110661E+00 -0.99770945E+00  0.00000000E+00  0.10000000E+00    1    0
  0.14017986E+00  0.66110661E+00  0.69178161E+00  0.00000000E+00  0.40000000E-01    2    0
 VARIABLES= X1,X2,Y1,Y2,R,ID,RK
ZONE T="   32" 
SOLUTIONTIME=     0.03100000,STRANDID=   1
  0.84864688E+00  0.66110661E+00 -0.99770945E+00  0.00000000E+00  0.10000000E+00    1    0
  0.14156343E+00  0.66110661E+00  0.69178161E+00  0.00000000E+00  0.40000000E-01    2    0
 VARIABLES= X1,X2,Y1,Y2,R,ID,RK
ZONE T="   34" 
SOLUTIONTIME=     0.03300000,STRANDID=   1
  0.84665146E+00  0.66110661E+00 -0.99770945E+00  0.00000000E+00  0.10000000E+00    1    0
  0.14294699E+00  0.66110661E+00  0.69178161E+00  0.00000000E+00  0.40000000E-01    2    0
 VARIABLES= X1,X2,Y1,Y2,R,ID,RK
ZONE T="   36" 
SOLUTIONTIME=     0.03500000,STRANDID=   1
  0.84465604E+00  0.66110661E+00 -0.99770945E+00  0.00000000E+00  0.10000000E+00    1    0
  0.14433055E+00  0.66110661E+00  0.69178161E+00  0.00000000E+00  0.40000000E-01    2    0
 VARIABLES= X1,X2,Y1,Y2,R,ID,RK
ZONE T="   38" 
SOLUTIONTIME=     0.03700000,STRANDID=   1
  0.84266062E+00  0.66110661E+00 -0.99770945E+00  0.00000000E+00  0.10000000E+00    1    0
  0.14571412E+00  0.66110661E+00  0.69178161E+00  0.00000000E+00  0.40000000E-01    2    0
 VARIABLES= X1,X2,Y1,Y2,R,ID,RK
ZONE T="   40" 
SOLUTIONTIME=     0.03900000,STRANDID=   1
  0.84066521E+00  0.66110661E+00 -0.99770945E+00  0.00000000E+00  0.10000000E+00    1    0
  0.14709768E+00  0.66110661E+00  0.69178161E+00  0.00000000E+00  0.40000000E-01    2    0
 VARIABLES= X1,X2,Y1,Y2,R,ID,RK
ZONE T="   42" 
SOLUTIONTIME=     0.04100000,STRANDID=   1
  0.83866979E+00  0.66110661E+00 -0.99770945E+00  0.00000000E+00  0.10000000E+00    1    0
  0.14848124E+00  0.66110661E+00  0.69178161E+00  0.00000000E+00  0.40000000E-01    2    0
 VARIABLES= X1,X2,Y1,Y2,R,ID,RK
ZONE T="   44" 
SOLUTIONTIME=     0.04300000,STRANDID=   1
  0.83667437E+00  0.66110661E+00 -0.99770945E+00  0.00000000E+00  0.10000000E+00    1    0
  0.14986481E+00  0.66110661E+00  0.69178161E+00  0.00000000E+00  0.40000000E-01    2    0
 VARIABLES= X1,X2,Y1,Y2,R,ID,RK
ZONE T="   46" 
SOLUTIONTIME=     0.04500000,STRANDID=   1
  0.83467895E+00  0.66110661E+00 -0.99770945E+00  0.00000000E+00  0.10000000E+00    1    0
  0.15124837E+00  0.66110661E+00  0.69178161E+00  0.00000000E+00  0.40000000E-01    2    0
 VARIABLES= X1,X2,Y1,Y2,R,ID,RK
ZONE T="   48" 
SOLUTIONTIME=     0.04700000,STRANDID=   1
  0.83268353E+00  0.66110661E+00 -0.99770945E+00  0.00000000E+00  0.10000000E+00    1    0
  0.15263193E+00  0.66110661E+00  0.69178161E+00  0.00000000E+00  0.40000000E-01    2    0
 VARIABLES= X1,X2,Y1,Y2,R,ID,RK
ZONE T="   50" 
SOLUTIONTIME=     0.04900000,STRANDID=   1
  0.83068811E+00  0.66110661E+00 -0.99770945E+00  0.00000000E+00  0.10000000E+00    1    0
  0.15401550E+00  0.66110661E+00  0.69178161E+00  0.00000000E+00  0.40000000E-01    2    0
 VARIABLES= X1,X2,Y1,Y2,R,ID,RK
ZONE T="   52" 
SOLUTIONTIME=     0.05100000,STRANDID=   1
  0.82869269E+00  0.66110661E+00 -0.99770945E+00  0.00000000E+00  0.10000000E+00    1    0
  0.15539906E+00  0.66110661E+00  0.69178161E+00  0.00000000E+00  0.40000000E-01    2    0
 VARIABLES= X1,X2,Y1,Y2,R,ID,RK
ZONE T="   54" 
SOLUTIONTIME=     0.05300000,STRANDID=   1
  0.82669727E+00  0.66110661E+00 -0.99770945E+00  0.00000000E+00  0.10000000E+00    1    0
  0.15678262E+00  0.66110661E+00  0.69178161E+00  0.00000000E+00  0.40000000E-01    2    0
 VARIABLES= X1,X2,Y1,Y2,R,ID,RK
ZONE T="   56" 
SOLUTIONTIME=     0.05500000,STRANDID=   1
  0.82470185E+00  0.66110661E+00 -0.99770945E+00  0.00000000E+00  0.10000000E+00    1    0
  0.15816619E+00  0.66110661E+00  0.69178161E+00  0.00000000E+00  0.40000000E-01    2    0
 VARIABLES= X1,X2,Y1,Y2,R,ID,RK
ZONE T="   58" 
SOLUTIONTIME=     0.05700000,STRANDID=   1
  0.82270644E+00  0.66110661E+00 -0.99770945E+00  0.00000000E+00  0.10000000E+00    1    0
  0.15954975E+00  0.66110661E+00  0.69178161E+00  0.00000000E+00  0.40000000E-01    2    0
 VARIABLES= X1,X2,Y1,Y2,R,ID,RK
ZONE T="   60" 
SOLUTIONTIME=     0.05900000,STRANDID=   1
  0.82071102E+00  0.66110661E+00 -0.99770945E+00  0.00000000E+00  0.10000000E+00    1    0
  0.16093331E+00  0.66110661E+00  0.69178161E+00  0.00000000E+00  0.40000000E-01    2    0
 VARIABLES= X1,X2,Y1,Y2,R,ID,RK
ZONE T="   62" 
SOLUTIONTIME=     0.06100000,STRANDID=   1
  0.81871560E+00  0.66110661E+00 -0.99770945E+00  0.00000000E+00  0.10000000E+00    1    0
  0.16231688E+00  0.66110661E+00  0.69178161E+00  0.00000000E+00  0.40000000E-01    2    0
 VARIABLES= X1,X2,Y1,Y2,R,ID,RK
ZONE T="   64" 
SOLUTIONTIME=     0.06300000,STRANDID=   1
  0.81672018E+00  0.66110661E+00 -0.99770945E+00  0.00000000E+00  0.10000000E+00    1    0
  0.16370044E+00  0.66110661E+00  0.69178161E+00  0.00000000E+00  0.40000000E-01    2    0
 VARIABLES= X1,X2,Y1,Y2,R,ID,RK
ZONE T="   66" 
SOLUTIONTIME=     0.06500000,STRANDID=   1
  0.81472476E+00  0.66110661E+00 -0.99770945E+00  0.00000000E+00  0.10000000E+00    1    0
  0.16508400E+00  0.66110661E+00  0.69178161E+00  0.00000000E+00  0.40000000E-01    2    0
 VARIABLES= X1,X2,Y1,Y2,R,ID,RK
ZONE T="   68" 
SOLUTIONTIME=     0.06700000,STRANDID=   1
  0.81272934E+00  0.66110661E+00 -0.99770945E+00  0.00000000E+00  0.10000000E+00    1    0
  0.16646757E+00  0.66110661E+00  0.69178161E+00  0.00000000E+00  0.40000000E-01    2    0
 VARIABLES= X1,X2,Y1,Y2,R,ID,RK
ZONE T="   70" 
SOLUTIONTIME=     0.06900000,STRANDID=   1
  0.81073392E+00  0.66110661E+00 -0.99770945E+00  0.00000000E+00  0.10000000E+00    1    0
  0.16785113E+00  0.66110661E+00  0.69178161E+00  0.00000000E+00  0.40000000E-01    2    0
 VARIABLES= X1,X2,Y1,Y2,R,ID,RK
ZONE T="   72" 
SOLUTIONTIME=     0.07100000,STRANDID=   1
  0.80873850E+00  0.66110661E+00 -0.99770945E+00  0.00000000E+00  0.10000000E+00    1    0
  0.16923469E+00  0.66110661E+00  0.69178161E+00  0.00000000E+00  0.40000000E-01    2    0
 VARIABLES= X1,X2,Y1,Y2,R,ID,RK
ZONE T="   74" 
SOLUTIONTIME=     0.07300000,STRANDID=   1
  0.80674308E+00  0.66110661E+00 -0.99770945E+00  0.00000000E+00  0.10000000E+00    1    0
  0.17061825E+00  0.66110661E+00  0.69178161E+00  0.00000000E+00  0.40000000E-01    2    0
 VARIABLES= X1,X2,Y1,Y2,R,ID,RK
ZONE T="   76" 
SOLUTIONTIME=     0.07500000,STRANDID=   1
  0.80474767E+00  0.66110661E+00 -0.99770945E+00  0.00000000E+00  0.10000000E+00    1    0
  0.17200182E+00  0.66110661E+00  0.69178161E+00  0.00000000E+00  0.40000000E-01    2    0
 VARIABLES= X1,X2,Y1,Y2,R,ID,RK
ZONE T="   78" 
SOLUTIONTIME=     0.07700000,STRANDID=   1
  0.80275225E+00  0.66110661E+00 -0.99770945E+00  0.00000000E+00  0.10000000E+00    1    0
  0.17338538E+00  0.66110661E+00  0.69178161E+00  0.00000000E+00  0.40000000E-01    2    0
 VARIABLES= X1,X2,Y1,Y2,R,ID,RK
ZONE T="   80" 
SOLUTIONTIME=     0.07900000,STRANDID=   1
  0.80075683E+00  0.66110661E+00 -0.99770945E+00  0.00000000E+00  0.10000000E+00    1    0
  0.17476894E+00  0.66110661E+00  0.69178161E+00  0.00000000E+00  0.40000000E-01    2    0
 VARIABLES= X1,X2,Y1,Y2,R,ID,RK
ZONE T="   82" 
SOLUTIONTIME=     0.08100000,STRANDID=   1
  0.79876141E+00  0.66110661E+00 -0.99770945E+00  0.00000000E+00  0.10000000E+00    1    0
  0.17615251E+00  0.66110661E+00  0.69178161E+00  0.00000000E+00  0.40000000E-01    2    0
 VARIABLES= X1,X2,Y1,Y2,R,ID,RK
ZONE T="   84" 
SOLUTIONTIME=     0.08300000,STRANDID=   1
  0.79676599E+00  0.66110661E+00 -0.99770945E+00  0.00000000E+00  0.10000000E+00    1    0
  0.17753607E+00  0.66110661E+00  0.69178161E+00  0.00000000E+00  0.40000000E-01    2    0
 VARIABLES= X1,X2,Y1,Y2,R,ID,RK
ZONE T="   86" 
SOLUTIONTIME=     0.08500000,STRANDID=   1
  0.79477057E+00  0.66110661E+00 -0.99770945E+00  0.00000000E+00  0.10000000E+00    1    0
  0.17891963E+00  0.66110661E+00  0.69178161E+00  0.00000000E+00  0.40000000E-01    2    0
 VARIABLES= X1,X2,Y1,Y2,R,ID,RK
ZONE T="   88" 
SOLUTIONTIME=     0.08700000,STRANDID=   1
  0.79277515E+00  0.66110661E+00 -0.99770945E+00  0.00000000E+00  0.10000000E+00    1    0
  0.18030320E+00  0.66110661E+00  0.69178161E+00  0.00000000E+00  0.40000000E-01    2    0
 VARIABLES= X1,X2,Y1,Y2,R,ID,RK
ZONE T="   90" 
SOLUTIONTIME=     0.08900000,STRANDID=   1
  0.79077973E+00  0.66110661E+00 -0.99770945E+00  0.00000000E+00  0.10000000E+00    1    0
  0.18168676E+00  0.66110661E+00  0.69178161E+00  0.00000000E+00  0.40000000E-01    2    0
 VARIABLES= X1,X2,Y1,Y2,R,ID,RK
ZONE T="   92" 
SOLUTIONTIME=     0.09100000,STRANDID=   1
  0.78878431E+00  0.66110661E+00 -0.99770945E+00  0.00000000E+00  0.10000000E+00    1    0
  0.18307032E+00  0.66110661E+00  0.69178161E+00  0.00000000E+00  0.40000000E-01    2    0
 VARIABLES= X1,X2,Y1,Y2,R,ID,RK
ZONE T="   94" 
SOLUTIONTIME=     0.09300000,STRANDID=   1
  0.78678890E+00  0.66110661E+00 -0.99770945E+00  0.00000000E+00  0.10000000E+00    1    0
  0.18445389E+00  0.66110661E+00  0.69178161E+00  0.00000000E+00  0.40000000E-01    2    0
 VARIABLES= X1,X2,Y1,Y2,R,ID,RK
ZONE T="   96" 
SOLUTIONTIME=     0.09500000,STRANDID=   1
  0.78479348E+00  0.66110661E+00 -0.99770945E+00  0.00000000E+00  0.10000000E+00    1    0
  0.18583745E+00  0.66110661E+00  0.69178161E+00  0.00000000E+00  0.40000000E-01    2    0
 VARIABLES= X1,X2,Y1,Y2,R,ID,RK
ZONE T="   98" 
SOLUTIONTIME=     0.09700000,STRANDID=   1
  0.78279806E+00  0.66110661E+00 -0.99770945E+00  0.00000000E+00  0.10000000E+00    1    0
  0.18722101E+00  0.66110661E+00  0.69178161E+00  0.00000000E+00  0.40000000E-01    2    0
 VARIABLES= X1,X2,Y1,Y2,R,ID,RK
ZONE T="  100" 
SOLUTIONTIME=     0.09900000,STRANDID=   1
  0.78080264E+00  0.66110661E+00 -0.99770945E+00  0.00000000E+00  0.10000000E+00    1    0
  0.18860458E+00  0.66110661E+00  0.69178161E+00  0.00000000E+00  0.40000000E-01    2    0
 VARIABLES= X1,X2,Y1,Y2,R,ID,RK
ZONE T="  102" 
SOLUTIONTIME=     0.10100000,STRANDID=   1
  0.77880722E+00  0.66110661E+00 -0.99770945E+00  0.00000000E+00  0.10000000E+00    1    0
  0.18998814E+00  0.66110661E+00  0.69178161E+00  0.00000000E+00  0.40000000E-01    2    0
 VARIABLES= X1,X2,Y1,Y2,R,ID,RK
ZONE T="  104" 
SOLUTIONTIME=     0.10300000,STRANDID=   1
  0.77681180E+00  0.66110661E+00 -0.99770945E+00  0.00000000E+00  0.10000000E+00    1    0
  0.19137170E+00  0.66110661E+00  0.69178161E+00  0.00000000E+00  0.40000000E-01    2    0
 VARIABLES= X1,X2,Y1,Y2,R,ID,RK
ZONE T="  106" 
SOLUTIONTIME=     0.10500000,STRANDID=   1
  0.77481638E+00  0.66110661E+00 -0.99770945E+00  0.00000000E+00  0.10000000E+00    1    0
  0.19275527E+00  0.66110661E+00  0.69178161E+00  0.00000000E+00  0.40000000E-01    2    0
 VARIABLES= X1,X2,Y1,Y2,R,ID,RK
ZONE T="  108" 
SOLUTIONTIME=     0.10700000,STRANDID=   1
  0.77282096E+00  0.66110661E+00 -0.99770945E+00  0.00000000E+00  0.10000000E+00    1    0
  0.19413883E+00  0.66110661E+00  0.69178161E+00  0.00000000E+00  0.40000000E-01    2    0
 VARIABLES= X1,X2,Y1,Y2,R,ID,RK
ZONE T="  110" 
SOLUTIONTIME=     0.10900000,STRANDID=   1
  0.77082554E+00  0.66110661E+00 -0.99770945E+00  0.00000000E+00  0.10000000E+00    1    0
  0.19552239E+00  0.66110661E+00  0.69178161E+00  0.00000000E+00  0.40000000E-01    2    0
 VARIABLES= X1,X2,Y1,Y2,R,ID,RK
ZONE T="  112" 
SOLUTIONTIME=     0.11100000,STRANDID=   1
  0.76883013E+00  0.66110661E+00 -0.99770945E+00  0.00000000E+00  0.10000000E+00    1    0
  0.19690596E+00  0.66110661E+00  0.69178161E+00  0.00000000E+00  0.40000000E-01    2    0
 VARIABLES= X1,X2,Y1,Y2,R,ID,RK
ZONE T="  114" 
SOLUTIONTIME=     0.11300000,STRANDID=   1
  0.76683471E+00  0.66110661E+00 -0.99770945E+00  0.00000000E+00  0.10000000E+00    1    0
  0.19828952E+00  0.66110661E+00  0.69178161E+00  0.00000000E+00  0.40000000E-01    2    0
 VARIABLES= X1,X2,Y1,Y2,R,ID,RK
ZONE T="  116" 
SOLUTIONTIME=     0.11500000,STRANDID=   1
  0.76483929E+00  0.66110661E+00 -0.99770945E+00  0.00000000E+00  0.10000000E+00    1    0
  0.19967308E+00  0.66110661E+00  0.69178161E+00  0.00000000E+00  0.40000000E-01    2    0
 VARIABLES= X1,X2,Y1,Y2,R,ID,RK
ZONE T="  118" 
SOLUTIONTIME=     0.11700000,STRANDID=   1
  0.76284387E+00  0.66110661E+00 -0.99770945E+00  0.00000000E+00  0.10000000E+00    1    0
  0.20105665E+00  0.66110661E+00  0.69178161E+00  0.00000000E+00  0.40000000E-01    2    0
 VARIABLES= X1,X2,Y1,Y2,R,ID,RK
ZONE T="  120" 
SOLUTIONTIME=     0.11900000,STRANDID=   1
  0.76084845E+00  0.66110661E+00 -0.99770945E+00  0.00000000E+00  0.10000000E+00    1    0
  0.20244021E+00  0.66110661E+00  0.69178161E+00  0.00000000E+00  0.40000000E-01    2    0
 VARIABLES= X1,X2,Y1,Y2,R,ID,RK
ZONE T="  122" 
SOLUTIONTIME=     0.12100000,STRANDID=   1
  0.75885303E+00  0.66110661E+00 -0.99770945E+00  0.00000000E+00  0.10000000E+00    1    0
  0.20382377E+00  0.66110661E+00  0.69178161E+00  0.00000000E+00  0.40000000E-01    2    0
 VARIABLES= X1,X2,Y1,Y2,R,ID,RK
ZONE T="  124" 
SOLUTIONTIME=     0.12300000,STRANDID=   1
  0.75685761E+00  0.66110661E+00 -0.99770945E+00  0.00000000E+00  0.10000000E+00    1    0
  0.20520734E+00  0.66110661E+00  0.69178161E+00  0.00000000E+00  0.40000000E-01    2    0
 VARIABLES= X1,X2,Y1,Y2,R,ID,RK
ZONE T="  126" 
SOLUTIONTIME=     0.12500000,STRANDID=   1
  0.75486219E+00  0.66110661E+00 -0.99770945E+00  0.00000000E+00  0.10000000E+00    1    0
  0.20659090E+00  0.66110661E+00  0.69178161E+00  0.00000000E+00  0.40000000E-01    2    0
 VARIABLES= X1,X2,Y1,Y2,R,ID,RK
ZONE T="  128" 
SOLUTIONTIME=     0.12700000,STRANDID=   1
  0.75286677E+00  0.66110661E+00 -0.99770945E+00  0.00000000E+00  0.10000000E+00    1    0
  0.20797446E+00  0.66110661E+00  0.69178161E+00  0.00000000E+00  0.40000000E-01    2    0
 VARIABLES= X1,X2,Y1,Y2,R,ID,RK
ZONE T="  130" 
SOLUTIONTIME=     0.12900000,STRANDID=   1
  0.75087136E+00  0.66110661E+00 -0.99770945E+00  0.00000000E+00  0.10000000E+00    1    0
  0.20935802E+00  0.66110661E+00  0.69178161E+00  0.00000000E+00  0.40000000E-01    2    0
 VARIABLES= X1,X2,Y1,Y2,R,ID,RK
ZONE T="  132" 
SOLUTIONTIME=     0.13100000,STRANDID=   1
  0.74887594E+00  0.66110661E+00 -0.99770945E+00  0.00000000E+00  0.10000000E+00    1    0
  0.21074159E+00  0.66110661E+00  0.69178161E+00  0.00000000E+00  0.40000000E-01    2    0
 VARIABLES= X1,X2,Y1,Y2,R,ID,RK
ZONE T="  134" 
SOLUTIONTIME=     0.13300000,STRANDID=   1
  0.74688052E+00  0.66110661E+00 -0.99770945E+00  0.00000000E+00  0.10000000E+00    1    0
  0.21212515E+00  0.66110661E+00  0.69178161E+00  0.00000000E+00  0.40000000E-01    2    0
 VARIABLES= X1,X2,Y1,Y2,R,ID,RK
ZONE T="  136" 
SOLUTIONTIME=     0.13500000,STRANDID=   1
  0.74488510E+00  0.66110661E+00 -0.99770945E+00  0.00000000E+00  0.10000000E+00    1    0
  0.21350871E+00  0.66110661E+00  0.69178161E+00  0.00000000E+00  0.40000000E-01    2    0
 VARIABLES= X1,X2,Y1,Y2,R,ID,RK
ZONE T="  138" 
SOLUTIONTIME=     0.13700000,STRANDID=   1
  0.74288968E+00  0.66110661E+00 -0.99770945E+00  0.00000000E+00  0.10000000E+00    1    0
  0.21489228E+00  0.66110661E+00  0.69178161E+00  0.00000000E+00  0.40000000E-01    2    0
 VARIABLES= X1,X2,Y1,Y2,R,ID,RK
ZONE T="  140" 
SOLUTIONTIME=     0.13900000,STRANDID=   1
  0.74089426E+00  0.66110661E+00 -0.99770945E+00  0.00000000E+00  0.10000000E+00    1    0
  0.21627584E+00  0.66110661E+00  0.69178161E+00  0.00000000E+00  0.40000000E-01    2    0
 VARIABLES= X1,X2,Y1,Y2,R,ID,RK
ZONE T="  142" 
SOLUTIONTIME=     0.14100000,STRANDID=   1
  0.73889884E+00  0.66110661E+00 -0.99770945E+00  0.00000000E+00  0.10000000E+00    1    0
  0.21765940E+00  0.66110661E+00  0.69178161E+00  0.00000000E+00  0.40000000E-01    2    0
 VARIABLES= X1,X2,Y1,Y2,R,ID,RK
ZONE T="  144" 
SOLUTIONTIME=     0.14300000,STRANDID=   1
  0.73690342E+00  0.66110661E+00 -0.99770945E+00  0.00000000E+00  0.10000000E+00    1    0
  0.21904297E+00  0.66110661E+00  0.69178161E+00  0.00000000E+00  0.40000000E-01    2    0
 VARIABLES= X1,X2,Y1,Y2,R,ID,RK
ZONE T="  146" 
SOLUTIONTIME=     0.14500000,STRANDID=   1
  0.73490800E+00  0.66110661E+00 -0.99770945E+00  0.00000000E+00  0.10000000E+00    1    0
  0.22042653E+00  0.66110661E+00  0.69178161E+00  0.00000000E+00  0.40000000E-01    2    0
 VARIABLES= X1,X2,Y1,Y2,R,ID,RK
ZONE T="  148" 
SOLUTIONTIME=     0.14700000,STRANDID=   1
  0.73291259E+00  0.66110661E+00 -0.99770945E+00  0.00000000E+00  0.10000000E+00    1    0
  0.22181009E+00  0.66110661E+00  0.69178161E+00  0.00000000E+00  0.40000000E-01    2    0
 VARIABLES= X1,X2,Y1,Y2,R,ID,RK
ZONE T="  150" 
SOLUTIONTIME=     0.14900000,STRANDID=   1
  0.73091717E+00  0.66110661E+00 -0.99770945E+00  0.00000000E+00  0.10000000E+00    1    0
  0.22319366E+00  0.66110661E+00  0.69178161E+00  0.00000000E+00  0.40000000E-01    2    0
 VARIABLES= X1,X2,Y1,Y2,R,ID,RK
ZONE T="  152" 
SOLUTIONTIME=     0.15100000,STRANDID=   1
  0.72892175E+00  0.66110661E+00 -0.99770945E+00  0.00000000E+00  0.10000000E+00    1    0
  0.22457722E+00  0.66110661E+00  0.69178161E+00  0.00000000E+00  0.40000000E-01    2    0
 VARIABLES= X1,X2,Y1,Y2,R,ID,RK
ZONE T="  154" 
SOLUTIONTIME=     0.15300000,STRANDID=   1
  0.72692633E+00  0.66110661E+00 -0.99770945E+00  0.00000000E+00  0.10000000E+00    1    0
  0.22596078E+00  0.66110661E+00  0.69178161E+00  0.00000000E+00  0.40000000E-01    2    0
 VARIABLES= X1,X2,Y1,Y2,R,ID,RK
ZONE T="  156" 
SOLUTIONTIME=     0.15500000,STRANDID=   1
  0.72493091E+00  0.66110661E+00 -0.99770945E+00  0.00000000E+00  0.10000000E+00    1    0
  0.22734435E+00  0.66110661E+00  0.69178161E+00  0.00000000E+00  0.40000000E-01    2    0
 VARIABLES= X1,X2,Y1,Y2,R,ID,RK
ZONE T="  158" 
SOLUTIONTIME=     0.15700000,STRANDID=   1
  0.72293549E+00  0.66110661E+00 -0.99770945E+00  0.00000000E+00  0.10000000E+00    1    0
  0.22872791E+00  0.66110661E+00  0.69178161E+00  0.00000000E+00  0.40000000E-01    2    0
 VARIABLES= X1,X2,Y1,Y2,R,ID,RK
ZONE T="  160" 
SOLUTIONTIME=     0.15900000,STRANDID=   1
  0.72094007E+00  0.66110661E+00 -0.99770945E+00  0.00000000E+00  0.10000000E+00    1    0
  0.23011147E+00  0.66110661E+00  0.69178161E+00  0.00000000E+00  0.40000000E-01    2    0
 VARIABLES= X1,X2,Y1,Y2,R,ID,RK
ZONE T="  162" 
SOLUTIONTIME=     0.16100000,STRANDID=   1
  0.71894465E+00  0.66110661E+00 -0.99770945E+00  0.00000000E+00  0.10000000E+00    1    0
  0.23149504E+00  0.66110661E+00  0.69178161E+00  0.00000000E+00  0.40000000E-01    2    0
 VARIABLES= X1,X2,Y1,Y2,R,ID,RK
ZONE T="  164" 
SOLUTIONTIME=     0.16300000,STRANDID=   1
  0.71694923E+00  0.66110661E+00 -0.99770945E+00  0.00000000E+00  0.10000000E+00    1    0
  0.23287860E+00  0.66110661E+00  0.69178161E+00  0.00000000E+00  0.40000000E-01    2    0
 VARIABLES= X1,X2,Y1,Y2,R,ID,RK
ZONE T="  166" 
SOLUTIONTIME=     0.16500000,STRANDID=   1
  0.71495382E+00  0.66110661E+00 -0.99770945E+00  0.00000000E+00  0.10000000E+00    1    0
  0.23426216E+00  0.66110661E+00  0.69178161E+00  0.00000000E+00  0.40000000E-01    2    0
 VARIABLES= X1,X2,Y1,Y2,R,ID,RK
ZONE T="  168" 
SOLUTIONTIME=     0.16700000,STRANDID=   1
  0.71295840E+00  0.66110661E+00 -0.99770945E+00  0.00000000E+00  0.10000000E+00    1    0
  0.23564573E+00  0.66110661E+00  0.69178161E+00  0.00000000E+00  0.40000000E-01    2    0
 VARIABLES= X1,X2,Y1,Y2,R,ID,RK
ZONE T="  170" 
SOLUTIONTIME=     0.16900000,STRANDID=   1
  0.71096298E+00  0.66110661E+00 -0.99770945E+00  0.00000000E+00  0.10000000E+00    1    0
  0.23702929E+00  0.66110661E+00  0.69178161E+00  0.00000000E+00  0.40000000E-01    2    0
 VARIABLES= X1,X2,Y1,Y2,R,ID,RK
ZONE T="  172" 
SOLUTIONTIME=     0.17100000,STRANDID=   1
  0.70896756E+00  0.66110661E+00 -0.99770945E+00  0.00000000E+00  0.10000000E+00    1    0
  0.23841285E+00  0.66110661E+00  0.69178161E+00  0.00000000E+00  0.40000000E-01    2    0
 VARIABLES= X1,X2,Y1,Y2,R,ID,RK
ZONE T="  174" 
SOLUTIONTIME=     0.17300000,STRANDID=   1
  0.70697214E+00  0.66110661E+00 -0.99770945E+00  0.00000000E+00  0.10000000E+00    1    0
  0.23979642E+00  0.66110661E+00  0.69178161E+00  0.00000000E+00  0.40000000E-01    2    0
 VARIABLES= X1,X2,Y1,Y2,R,ID,RK
ZONE T="  176" 
SOLUTIONTIME=     0.17500000,STRANDID=   1
  0.70497672E+00  0.66110661E+00 -0.99770945E+00  0.00000000E+00  0.10000000E+00    1    0
  0.24117998E+00  0.66110661E+00  0.69178161E+00  0.00000000E+00  0.40000000E-01    2    0
 VARIABLES= X1,X2,Y1,Y2,R,ID,RK
ZONE T="  178" 
SOLUTIONTIME=     0.17700000,STRANDID=   1
  0.70298130E+00  0.66110661E+00 -0.99770945E+00  0.00000000E+00  0.10000000E+00    1    0
  0.24256354E+00  0.66110661E+00  0.69178161E+00  0.00000000E+00  0.40000000E-01    2    0
 VARIABLES= X1,X2,Y1,Y2,R,ID,RK
ZONE T="  180" 
SOLUTIONTIME=     0.17900000,STRANDID=   1
  0.70098588E+00  0.66110661E+00 -0.99770945E+00  0.00000000E+00  0.10000000E+00    1    0
  0.24394710E+00  0.66110661E+00  0.69178161E+00  0.00000000E+00  0.40000000E-01    2    0
 VARIABLES= X1,X2,Y1,Y2,R,ID,RK
ZONE T="  182" 
SOLUTIONTIME=     0.18100000,STRANDID=   1
  0.69899046E+00  0.66110661E+00 -0.99770945E+00  0.00000000E+00  0.10000000E+00    1    0
  0.24533067E+00  0.66110661E+00  0.69178161E+00  0.00000000E+00  0.40000000E-01    2    0
 VARIABLES= X1,X2,Y1,Y2,R,ID,RK
ZONE T="  184" 
SOLUTIONTIME=     0.18300000,STRANDID=   1
  0.69699505E+00  0.66110661E+00 -0.99770945E+00  0.00000000E+00  0.10000000E+00    1    0
  0.24671423E+00  0.66110661E+00  0.69178161E+00  0.00000000E+00  0.40000000E-01    2    0
 VARIABLES= X1,X2,Y1,Y2,R,ID,RK
ZONE T="  186" 
SOLUTIONTIME=     0.18500000,STRANDID=   1
  0.69499963E+00  0.66110661E+00 -0.99770945E+00  0.00000000E+00  0.10000000E+00    1    0
  0.24809779E+00  0.66110661E+00  0.69178161E+00  0.00000000E+00  0.40000000E-01    2    0
 VARIABLES= X1,X2,Y1,Y2,R,ID,RK
ZONE T="  188" 
SOLUTIONTIME=     0.18700000,STRANDID=   1
  0.69300421E+00  0.66110661E+00 -0.99770945E+00  0.00000000E+00  0.10000000E+00    1    0
  0.24948136E+00  0.66110661E+00  0.69178161E+00  0.00000000E+00  0.40000000E-01    2    0
 VARIABLES= X1,X2,Y1,Y2,R,ID,RK
ZONE T="  190" 
SOLUTIONTIME=     0.18900000,STRANDID=   1
  0.69100879E+00  0.66110661E+00 -0.99770945E+00  0.00000000E+00  0.10000000E+00    1    0
  0.25086492E+00  0.66110661E+00  0.69178161E+00  0.00000000E+00  0.40000000E-01    2    0
 VARIABLES= X1,X2,Y1,Y2,R,ID,RK
ZONE T="  192" 
SOLUTIONTIME=     0.19100000,STRANDID=   1
  0.68901337E+00  0.66110661E+00 -0.99770945E+00  0.00000000E+00  0.10000000E+00    1    0
  0.25224848E+00  0.66110661E+00  0.69178161E+00  0.00000000E+00  0.40000000E-01    2    0
 VARIABLES= X1,X2,Y1,Y2,R,ID,RK
ZONE T="  194" 
SOLUTIONTIME=     0.19300000,STRANDID=   1
  0.68701795E+00  0.66110661E+00 -0.99770945E+00  0.00000000E+00  0.10000000E+00    1    0
  0.25363205E+00  0.66110661E+00  0.69178161E+00  0.00000000E+00  0.40000000E-01    2    0
 VARIABLES= X1,X2,Y1,Y2,R,ID,RK
ZONE T="  196" 
SOLUTIONTIME=     0.19500000,STRANDID=   1
  0.68502253E+00  0.66110661E+00 -0.99770945E+00  0.00000000E+00  0.10000000E+00    1    0
  0.25501561E+00  0.66110661E+00  0.69178161E+00  0.00000000E+00  0.40000000E-01    2    0
 VARIABLES= X1,X2,Y1,Y2,R,ID,RK
ZONE T="  198" 
SOLUTIONTIME=     0.19700000,STRANDID=   1
  0.68302711E+00  0.66110661E+00 -0.99770945E+00  0.00000000E+00  0.10000000E+00    1    0
  0.25639917E+00  0.66110661E+00  0.69178161E+00  0.00000000E+00  0.40000000E-01    2    0
 VARIABLES= X1,X2,Y1,Y2,R,ID,RK
ZONE T="  200" 
SOLUTIONTIME=     0.19900000,STRANDID=   1
  0.68103169E+00  0.66110661E+00 -0.99770945E+00  0.00000000E+00  0.10000000E+00    1    0
  0.25778274E+00  0.66110661E+00  0.69178161E+00  0.00000000E+00  0.40000000E-01    2    0
 VARIABLES= X1,X2,Y1,Y2,R,ID,RK
ZONE T="  202" 
SOLUTIONTIME=     0.20100000,STRANDID=   1
  0.67903628E+00  0.66110661E+00 -0.99770945E+00  0.00000000E+00  0.10000000E+00    1    0
  0.25916630E+00  0.66110661E+00  0.69178161E+00  0.00000000E+00  0.40000000E-01    2    0
 VARIABLES= X1,X2,Y1,Y2,R,ID,RK
ZONE T="  204" 
SOLUTIONTIME=     0.20300000,STRANDID=   1
  0.67704086E+00  0.66110661E+00 -0.99770945E+00  0.00000000E+00  0.10000000E+00    1    0
  0.26054986E+00  0.66110661E+00  0.69178161E+00  0.00000000E+00  0.40000000E-01    2    0
 VARIABLES= X1,X2,Y1,Y2,R,ID,RK
ZONE T="  206" 
SOLUTIONTIME=     0.20500000,STRANDID=   1
  0.67504544E+00  0.66110661E+00 -0.99770945E+00  0.00000000E+00  0.10000000E+00    1    0
  0.26193343E+00  0.66110661E+00  0.69178161E+00  0.00000000E+00  0.40000000E-01    2    0
 VARIABLES= X1,X2,Y1,Y2,R,ID,RK
ZONE T="  208" 
SOLUTIONTIME=     0.20700000,STRANDID=   1
  0.67305002E+00  0.66110661E+00 -0.99770945E+00  0.00000000E+00  0.10000000E+00    1    0
  0.26331699E+00  0.66110661E+00  0.69178161E+00  0.00000000E+00  0.40000000E-01    2    0
 VARIABLES= X1,X2,Y1,Y2,R,ID,RK
ZONE T="  210" 
SOLUTIONTIME=     0.20900000,STRANDID=   1
  0.67105460E+00  0.66110661E+00 -0.99770945E+00  0.00000000E+00  0.10000000E+00    1    0
  0.26470055E+00  0.66110661E+00  0.69178161E+00  0.00000000E+00  0.40000000E-01    2    0
 VARIABLES= X1,X2,Y1,Y2,R,ID,RK
ZONE T="  212" 
SOLUTIONTIME=     0.21100000,STRANDID=   1
  0.66905918E+00  0.66110661E+00 -0.99770945E+00  0.00000000E+00  0.10000000E+00    1    0
  0.26608412E+00  0.66110661E+00  0.69178161E+00  0.00000000E+00  0.40000000E-01    2    0
 VARIABLES= X1,X2,Y1,Y2,R,ID,RK
ZONE T="  214" 
SOLUTIONTIME=     0.21300000,STRANDID=   1
  0.66706376E+00  0.66110661E+00 -0.99770945E+00  0.00000000E+00  0.10000000E+00    1    0
  0.26746768E+00  0.66110661E+00  0.69178161E+00  0.00000000E+00  0.40000000E-01    2    0
 VARIABLES= X1,X2,Y1,Y2,R,ID,RK
ZONE T="  216" 
SOLUTIONTIME=     0.21500000,STRANDID=   1
  0.66506834E+00  0.66110661E+00 -0.99770945E+00  0.00000000E+00  0.10000000E+00    1    0
  0.26885124E+00  0.66110661E+00  0.69178161E+00  0.00000000E+00  0.40000000E-01    2    0
 VARIABLES= X1,X2,Y1,Y2,R,ID,RK
ZONE T="  218" 
SOLUTIONTIME=     0.21700000,STRANDID=   1
  0.66307292E+00  0.66110661E+00 -0.99770945E+00  0.00000000E+00  0.10000000E+00    1    0
  0.27023481E+00  0.66110661E+00  0.69178161E+00  0.00000000E+00  0.40000000E-01    2    0
 VARIABLES= X1,X2,Y1,Y2,R,ID,RK
ZONE T="  220" 
SOLUTIONTIME=     0.21900000,STRANDID=   1
  0.66107751E+00  0.66110661E+00 -0.99770945E+00  0.00000000E+00  0.10000000E+00    1    0