 VARIABLES= X1,X2,Y1,Y2,R,ID,RK
ZONE T="  192" 
SOLUTIONTIME=     0.09550000,STRANDID=   2
  0.37743836E+00  0.33323889E+00 -0.27528414E-01 -0.11637105E+01  0.20000000E-01   15    1
 VARIABLES= X1,X2,Y1,Y2,R,ID,RK
ZONE T="  194" 
SOLUTIONTIME=     0.09650000,STRANDID=   2
  0.37741083E+00  0.33206782E+00 -0.27528414E-01 -0.11735172E+01  0.20000000E-01   15    1
 VARIABLES= X1,X2,Y1,Y2,R,ID,RK
ZONE T="  196" 
SOLUTIONTIME=     0.09750000,STRANDID=   2
  0.37738330E+00  0.33088695E+00 -0.27528414E-01 -0.11833238E+01  0.20000000E-01   15    1
 VARIABLES= X1,X2,Y1,Y2,R,ID,RK
ZONE T="  198" 
SOLUTIONTIME=     0.09850000,STRANDID=   2
  0.37735577E+00  0.32969627E+00 -0.27528414E-01 -0.11931305E+01  0.20000000E-01   15    1
 VARIABLES= X1,X2,Y1,Y2,R,ID,RK
ZONE T="  200" 
SOLUTIONTIME=     0.09950000,STRANDID=   2
  0.37732824E+00  0.32849579E+00 -0.27528414E-01 -0.12029371E+01  0.20000000E-01   15    1
 VARIABLES= X1,X2,Y1,Y2,R,ID,RK
ZONE T="  202" 
SOLUTIONTIME=     0.10050000,STRANDID=   2
  0.33670651E+00  0.33253331E+00 -0.32608799E-01 -0.11607712E+01  0.20000000E-01    8    1
  0.37730072E+00  0.32728549E+00 -0.27528414E-01 -0.12127438E+01  0.20000000E-01   15    1
 VARIABLES= X1,X2,Y1,Y2,R,ID,RK
ZONE T="  204" 
SOLUTIONTIME=     0.10150000,STRANDID=   2
  0.33667390E+00  0.33136518E+00 -0.32608799E-01 -0.11705779E+01  0.20000000E-01    8    1
  0.37727319E+00  0.32606540E+00 -0.27528414E-01 -0.12225504E+01  0.20000000E-01   15    1
 VARIABLES= X1,X2,Y1,Y2,R,ID,RK
ZONE T="  206" 
SOLUTIONTIME=     0.10250000,STRANDID=   2
  0.33664129E+00  0.33018725E+00 -0.32608799E-01 -0.11803845E+01  0.20000000E-01    8    1
  0.37724566E+00  0.32483549E+00 -0.27528414E-01 -0.12323571E+01  0.20000000E-01   15    1
 VARIABLES= X1,X2,Y1,Y2,R,ID,RK
ZONE T="  208" 
SOLUTIONTIME=     0.10350000,STRANDID=   2
  0.33660868E+00  0.32899951E+00 -0.32608799E-01 -0.11901912E+01  0.20000000E-01    8    1
  0.37721813E+00  0.32359578E+00 -0.27528414E-01 -0.12421637E+01  0.20000000E-01   15    1
 VARIABLES= X1,X2,Y1,Y2,R,ID,RK
ZONE T="  210" 
SOLUTIONTIME=     0.10450000,STRANDID=   2
  0.33657608E+00  0.32780196E+00 -0.32608799E-01 -0.11999978E+01  0.20000000E-01    8    1
  0.37719060E+00  0.32234626E+00 -0.27528414E-01 -0.12519704E+01  0.20000000E-01   15    1
 VARIABLES= X1,X2,Y1,Y2,R,ID,RK
ZONE T="  212" 
SOLUTIONTIME=     0.10550001,STRANDID=   2
  0.33654347E+00  0.32659461E+00 -0.32608799E-01 -0.12098045E+01  0.20000000E-01    8    1
  0.37716307E+00  0.32108693E+00 -0.27528414E-01 -0.12617770E+01  0.20000000E-01   15    1
 VARIABLES= X1,X2,Y1,Y2,R,ID,RK
ZONE T="  214" 
SOLUTIONTIME=     0.10650001,STRANDID=   2
  0.33651086E+00  0.32537745E+00 -0.32608799E-01 -0.12196111E+01  0.20000000E-01    8    1
  0.37713554E+00  0.31981780E+00 -0.27528414E-01 -0.12715837E+01  0.20000000E-01   15    1
 VARIABLES= X1,X2,Y1,Y2,R,ID,RK
ZONE T="  216" 
SOLUTIONTIME=     0.10750001,STRANDID=   2
  0.33647825E+00  0.32415048E+00 -0.32608799E-01 -0.12294178E+01  0.20000000E-01    8    1
  0.37710802E+00  0.31853886E+00 -0.27528414E-01 -0.12813903E+01  0.20000000E-01   15    1
  0.41738336E+00  0.33329158E+00 -0.22592017E-01 -0.11454219E+01  0.20000000E-01   22    1
 VARIABLES= X1,X2,Y1,Y2,R,ID,RK
ZONE T="  218" 
SOLUTIONTIME=     0.10850001,STRANDID=   2
  0.33644564E+00  0.32291371E+00 -0.32608799E-01 -0.12392244E+01  0.20000000E-01    8    1
  0.37708049E+00  0.31725012E+00 -0.27528414E-01 -0.12911970E+01  0.20000000E-01   15    1
  0.41736080E+00  0.33213880E+00 -0.22550373E-01 -0.11552237E+01  0.20000000E-01   22    1
 VARIABLES= X1,X2,Y1,Y2,R,ID,RK
ZONE T="  220" 
SOLUTIONTIME=     0.10950001,STRANDID=   2
  0.33641303E+00  0.32166713E+00 -0.32608799E-01 -0.12490311E+01  0.20000000E-01    8    1
  0.37705296E+00  0.31595157E+00 -0.27528414E-01 -0.13010036E+01  0.20000000E-01   15    1
  0.41733828E+00  0.33097623E+00 -0.22508736E-01 -0.11650254E+01  0.20000000E-01   22    1
 VARIABLES= X1,X2,Y1,Y2,R,ID,RK
ZONE T="  222" 
SOLUTIONTIME=     0.11050001,STRANDID=   2
  0.33638042E+00  0.32041075E+00 -0.32608799E-01 -0.12588377E+01  0.20000000E-01    8    1
  0.37702543E+00  0.31464321E+00 -0.27528414E-01 -0.13108103E+01  0.20000000E-01   15    1
  0.41731581E+00  0.32980385E+00 -0.22467106E-01 -0.11748270E+01  0.20000000E-01   22    1
 VARIABLES= X1,X2,Y1,Y2,R,ID,RK
ZONE T="  224" 
SOLUTIONTIME=     0.11150001,STRANDID=   2
  0.33634781E+00  0.31914455E+00 -0.32608799E-01 -0.12686444E+01  0.20000000E-01    8    1
  0.37699790E+00  0.31332504E+00 -0.27528414E-01 -0.13206169E+01  0.20000000E-01   15    1
  0.41729337E+00  0.32862167E+00 -0.22425482E-01 -0.11846286E+01  0.20000000E-01   22    1
 VARIABLES= X1,X2,Y1,Y2,R,ID,RK
ZONE T="  226" 
SOLUTIONTIME=     0.11250001,STRANDID=   2
  0.33631521E+00  0.31786855E+00 -0.32608799E-01 -0.12784510E+01  0.20000000E-01    8    1
  0.37697037E+00  0.31199707E+00 -0.27528414E-01 -0.13304236E+01  0.20000000E-01   15    1
  0.41727098E+00  0.32742969E+00 -0.22383864E-01 -0.11944301E+01  0.20000000E-01   22    1
  0.45694036E+00  0.33231422E+00 -0.27768702E-01 -0.11506799E+01  0.20000000E-01   29    1
 VARIABLES= X1,X2,Y1,Y2,R,ID,RK
ZONE T="  228" 
SOLUTIONTIME=     0.11350001,STRANDID=   2
  0.29016941E+00  0.33227269E+00 -0.86233754E-01 -0.11515287E+01  0.20000000E-01    1    1
  0.33628260E+00  0.31658275E+00 -0.32608799E-01 -0.12882577E+01  0.20000000E-01    8    1
  0.37694285E+00  0.31065929E+00 -0.27528414E-01 -0.13402302E+01  0.20000000E-01   15    1
  0.41724862E+00  0.32622791E+00 -0.22342253E-01 -0.12042316E+01  0.20000000E-01   22    1
  0.45691259E+00  0.33115618E+00 -0.27775223E-01 -0.11604883E+01  0.20000000E-01   29    1
 VARIABLES= X1,X2,Y1,Y2,R,ID,RK
ZONE T="  230" 
SOLUTIONTIME=     0.11450001,STRANDID=   2
  0.29008318E+00  0.33111381E+00 -0.86233754E-01 -0.11613354E+01  0.20000000E-01    1    1
  0.33624999E+00  0.31528714E+00 -0.32608799E-01 -0.12980643E+01  0.20000000E-01    8    1
  0.37691532E+00  0.30931171E+00 -0.27528414E-01 -0.13500369E+01  0.20000000E-01   15    1
  0.41722631E+00  0.32501633E+00 -0.22300649E-01 -0.12140331E+01  0.20000000E-01   22    1
  0.45688481E+00  0.32998834E+00 -0.27781739E-01 -0.11702967E+01  0.20000000E-01   29    1
 VARIABLES= X1,X2,Y1,Y2,R,ID,RK
ZONE T="  232" 
SOLUTIONTIME=     0.11550001,STRANDID=   2
  0.28999694E+00  0.32994511E+00 -0.86233754E-01 -0.11711420E+01  0.20000000E-01    1    1
  0.33621738E+00  0.31398172E+00 -0.32608799E-01 -0.13078710E+01  0.20000000E-01    8    1
  0.37688779E+00  0.30795431E+00 -0.27528414E-01 -0.13598435E+01  0.20000000E-01   15    1
  0.41720404E+00  0.32379494E+00 -0.22259052E-01 -0.12238345E+01  0.20000000E-01   22    1
  0.45685702E+00  0.32881068E+00 -0.27788251E-01 -0.11801052E+01  0.20000000E-01   29    1
  0.49664816E+00  0.33275088E+00 -0.31119388E-01 -0.11464520E+01  0.20000000E-01   36    1
 VARIABLES= X1,X2,Y1,Y2,R,ID,RK
ZONE T="  234" 
SOLUTIONTIME=     0.11650001,STRANDID=   2
  0.28991071E+00  0.32876662E+00 -0.86233754E-01 -0.11809487E+01  0.20000000E-01    1    1
  0.33618477E+00  0.31266649E+00 -0.32608799E-01 -0.13176776E+01  0.20000000E-01    8    1
  0.37686026E+00  0.30658712E+00 -0.27528414E-01 -0.13696502E+01  0.20000000E-01   15    1
  0.41718181E+00  0.32256376E+00 -0.22217461E-01 -0.12336359E+01  0.20000000E-01   22    1
  0.45682923E+00  0.32762322E+00 -0.27794759E-01 -0.11899136E+01  0.20000000E-01   29    1
  0.49661701E+00  0.33159707E+00 -0.31154471E-01 -0.11562622E+01  0.20000000E-01   36    1
 VARIABLES= X1,X2,Y1,Y2,R,ID,RK
ZONE T="  236" 
SOLUTIONTIME=     0.11750001,STRANDID=   2
  0.28982448E+00  0.32757831E+00 -0.86233754E-01 -0.11907553E+01  0.20000000E-01    1    1
  0.33615216E+00  0.31134146E+00 -0.32608799E-01 -0.13274843E+01  0.20000000E-01    8    1
  0.37683273E+00  0.30521011E+00 -0.27528414E-01 -0.13794568E+01  0.20000000E-01   15    1
  0.41715963E+00  0.32132277E+00 -0.22175877E-01 -0.12434372E+01  0.20000000E-01   22    1
  0.45680143E+00  0.32642595E+00 -0.27801263E-01 -0.11997221E+01  0.20000000E-01   29    1
  0.49658583E+00  0.33043345E+00 -0.31189551E-01 -0.11660723E+01  0.20000000E-01   36    1
 VARIABLES= X1,X2,Y1,Y2,R,ID,RK
ZONE T="  238" 
SOLUTIONTIME=     0.11850001,STRANDID=   2
  0.28973824E+00  0.32638020E+00 -0.86233754E-01 -0.12005620E+01  0.20000000E-01    1    1
  0.33611955E+00  0.31000662E+00 -0.32608799E-01 -0.13372909E+01  0.20000000E-01    8    1
  0.37680520E+00  0.30382330E+00 -0.27528414E-01 -0.13892635E+01  0.20000000E-01   15    1
  0.41713748E+00  0.32007198E+00 -0.22134301E-01 -0.12532385E+01  0.20000000E-01   22    1
  0.45677362E+00  0.32521887E+00 -0.27807762E-01 -0.12095306E+01  0.20000000E-01   29    1
  0.49655462E+00  0.32926002E+00 -0.31224628E-01 -0.11758825E+01  0.20000000E-01   36    1
 VARIABLES= X1,X2,Y1,Y2,R,ID,RK
ZONE T="  240" 
SOLUTIONTIME=     0.11950001,STRANDID=   2
  0.28965201E+00  0.32517229E+00 -0.86233754E-01 -0.12103686E+01  0.20000000E-01    1    1
  0.33608694E+00  0.30866197E+00 -0.32608799E-01 -0.13470976E+01  0.20000000E-01    8    1
  0.37677768E+00  0.30242668E+00 -0.27528414E-01 -0.13990701E+01  0.20000000E-01   15    1
  0.41711538E+00  0.31881139E+00 -0.22092731E-01 -0.12630397E+01  0.20000000E-01   22    1
  0.45674581E+00  0.32400199E+00 -0.27814257E-01 -0.12193391E+01  0.20000000E-01   29    1
  0.49652336E+00  0.32807678E+00 -0.31259703E-01 -0.11856928E+01  0.20000000E-01   36    1
 VARIABLES= X1,X2,Y1,Y2,R,ID,RK
ZONE T="  242" 
SOLUTIONTIME=     0.12050001,STRANDID=   2
  0.28956578E+00  0.32395456E+00 -0.86233754E-01 -0.12201753E+01  0.20000000E-01    1    1
  0.33605434E+00  0.30730752E+00 -0.32608799E-01 -0.13569042E+01  0.20000000E-01    8    1
  0.37675015E+00  0.30102025E+00 -0.27528414E-01 -0.14088768E+01  0.20000000E-01   15    1
  0.41709332E+00  0.31754100E+00 -0.22051168E-01 -0.12728409E+01  0.20000000E-01   22    1
  0.45671799E+00  0.32277529E+00 -0.27820748E-01 -0.12291476E+01  0.20000000E-01   29    1
  0.49649208E+00  0.32688373E+00 -0.31294775E-01 -0.11955030E+01  0.20000000E-01   36    1
 VARIABLES= X1,X2,Y1,Y2,R,ID,RK
ZONE T="  244" 
SOLUTIONTIME=     0.12150001,STRANDID=   2
  0.28947954E+00  0.32272703E+00 -0.86233754E-01 -0.12299819E+01  0.20000000E-01    1    1
  0.33602173E+00  0.30594326E+00 -0.32608799E-01 -0.13667109E+01  0.20000000E-01    8    1
  0.37672262E+00  0.29960402E+00 -0.27528414E-01 -0.14186834E+01  0.20000000E-01   15    1
  0.41707130E+00  0.31626081E+00 -0.22009613E-01 -0.12826420E+01  0.20000000E-01   22    1
  0.45669016E+00  0.32153879E+00 -0.27827234E-01 -0.12389561E+01  0.20000000E-01   29    1
  0.49646076E+00  0.32568087E+00 -0.31329844E-01 -0.12053133E+01  0.20000000E-01   36    1
 VARIABLES= X1,X2,Y1,Y2,R,ID,RK
ZONE T="  246" 
SOLUTIONTIME=     0.12250001,STRANDID=   2
  0.28939331E+00  0.32148970E+00 -0.86233754E-01 -0.12397886E+01  0.20000000E-01    1    1
  0.33598912E+00  0.30456919E+00 -0.32608799E-01 -0.13765175E+01  0.20000000E-01    8    1
  0.37669509E+00  0.29817798E+00 -0.27528414E-01 -0.14284901E+01  0.20000000E-01   15    1
  0.41704932E+00  0.31497082E+00 -0.21968064E-01 -0.12924431E+01  0.20000000E-01   22    1
  0.45666233E+00  0.32029247E+00 -0.27833716E-01 -0.12487646E+01  0.20000000E-01   29    1
  0.49642940E+00  0.32446820E+00 -0.31364910E-01 -0.12151236E+01  0.20000000E-01   36    1
 VARIABLES= X1,X2,Y1,Y2,R,ID,RK
ZONE T="  248" 
SOLUTIONTIME=     0.12350001,STRANDID=   2
  0.28930707E+00  0.32024255E+00 -0.86233754E-01 -0.12495952E+01  0.20000000E-01    1    1
  0.33595651E+00  0.30318532E+00 -0.32608799E-01 -0.13863242E+01  0.20000000E-01    8    1
  0.37666756E+00  0.29674214E+00 -0.27528414E-01 -0.14382967E+01  0.20000000E-01   15    1
  0.41702738E+00  0.31367103E+00 -0.21926523E-01 -0.13022442E+01  0.20000000E-01   22    1
  0.45663449E+00  0.31903635E+00 -0.27840194E-01 -0.12585732E+01  0.20000000E-01   29    1
  0.49639801E+00  0.32324572E+00 -0.31399974E-01 -0.12249340E+01  0.20000000E-01   36    1
 VARIABLES= X1,X2,Y1,Y2,R,ID,RK
ZONE T="  250" 
SOLUTIONTIME=     0.12450001,STRANDID=   2
  0.28922084E+00  0.31898560E+00 -0.86233754E-01 -0.12594019E+01  0.20000000E-01    1    1
  0.33592390E+00  0.30179164E+00 -0.32608799E-01 -0.13961308E+01  0.20000000E-01    8    1
  0.37664003E+00  0.29529649E+00 -0.27528414E-01 -0.14481034E+01  0.20000000E-01   15    1
  0.41700549E+00  0.31236143E+00 -0.21884989E-01 -0.13120452E+01  0.20000000E-01   22    1
  0.45660665E+00  0.31777042E+00 -0.27846667E-01 -0.12683818E+01  0.20000000E-01   29    1
  0.49636658E+00  0.32201343E+00 -0.31435035E-01 -0.12347443E+01  0.20000000E-01   36    1
 VARIABLES= X1,X2,Y1,Y2,R,ID,RK
ZONE T="  252" 
SOLUTIONTIME=     0.12550001,STRANDID=   2
  0.28913461E+00  0.31771884E+00 -0.86233754E-01 -0.12692085E+01  0.20000000E-01    1    1
  0.33589129E+00  0.30038816E+00 -0.32608799E-01 -0.14059375E+01  0.20000000E-01    8    1
  0.37661250E+00  0.29384103E+00 -0.27528414E-01 -0.14579100E+01  0.20000000E-01   15    1
  0.41698363E+00  0.31104203E+00 -0.21843462E-01 -0.13218461E+01  0.20000000E-01   22    1
  0.45657880E+00  0.31649469E+00 -0.27853136E-01 -0.12781904E+01  0.20000000E-01   29    1
  0.49633512E+00  0.32077133E+00 -0.31470092E-01 -0.12445547E+01  0.20000000E-01   36    1
 VARIABLES= X1,X2,Y1,Y2,R,ID,RK
ZONE T="  254" 
SOLUTIONTIME=     0.12650001,STRANDID=   2
  0.28904837E+00  0.31644228E+00 -0.86233754E-01 -0.12790152E+01  0.20000000E-01    1    1
  0.33585868E+00  0.29897486E+00 -0.32608799E-01 -0.14157441E+01  0.20000000E-01    8    1
  0.37658498E+00  0.29237576E+00 -0.27528414E-01 -0.14677167E+01  0.20000000E-01   15    1
  0.41696182E+00  0.30971284E+00 -0.21801943E-01 -0.13316470E+01  0.20000000E-01   22    1
  0.45655094E+00  0.31520914E+00 -0.27859600E-01 -0.12879990E+01  0.20000000E-01   29    1
  0.49630363E+00  0.31951941E+00 -0.31505148E-01 -0.12543652E+01  0.20000000E-01   36    1
 VARIABLES= X1,X2,Y1,Y2,R,ID,RK
ZONE T="  256" 
SOLUTIONTIME=     0.12750001,STRANDID=   2
  0.28896214E+00  0.31515591E+00 -0.86233754E-01 -0.12888218E+01  0.20000000E-01    1    1
  0.33582607E+00  0.29755177E+00 -0.32608799E-01 -0.14255508E+01  0.20000000E-01    8    1
  0.37655745E+00  0.29090069E+00 -0.27528414E-01 -0.14775233E+01  0.20000000E-01   15    1
  0.41694005E+00  0.30837384E+00 -0.21760432E-01 -0.13414479E+01  0.20000000E-01   22    1
  0.45652308E+00  0.31391378E+00 -0.27866059E-01 -0.12978076E+01  0.20000000E-01   29    1
  0.49627209E+00  0.31825769E+00 -0.31540200E-01 -0.12641756E+01  0.20000000E-01   36    1
 VARIABLES= X1,X2,Y1,Y2,R,ID,RK
ZONE T="  258" 
SOLUTIONTIME=     0.12850001,STRANDID=   2
  0.28887591E+00  0.31385973E+00 -0.86233754E-01 -0.12986285E+01  0.20000000E-01    1    1
  0.33579346E+00  0.29611886E+00 -0.32608799E-01 -0.14353574E+01  0.20000000E-01    8    1
  0.37652992E+00  0.28941581E+00 -0.27528414E-01 -0.14873300E+01  0.20000000E-01   15    1
  0.41691832E+00  0.30702504E+00 -0.21718927E-01 -0.13512487E+01  0.20000000E-01   22    1
  0.45649520E+00  0.31260862E+00 -0.27872514E-01 -0.13076162E+01  0.20000000E-01   29    1
  0.49624053E+00  0.31698616E+00 -0.31575249E-01 -0.12739861E+01  0.20000000E-01   36    1
 VARIABLES= X1,X2,Y1,Y2,R,ID,RK
ZONE T="  260" 
SOLUTIONTIME=     0.12950001,STRANDID=   2
  0.28878967E+00  0.31255375E+00 -0.86233754E-01 -0.13084351E+01  0.20000000E-01    1    1
  0.33576086E+00  0.29467615E+00 -0.32608799E-01 -0.14451641E+01  0.20000000E-01    8    1
  0.37650239E+00  0.28792113E+00 -0.27528414E-01 -0.14971366E+01  0.20000000E-01   15    1
  0.41689663E+00  0.30566644E+00 -0.21677431E-01 -0.13610495E+01  0.20000000E-01   22    1
  0.45646733E+00  0.31129365E+00 -0.27878964E-01 -0.13174249E+01  0.20000000E-01   29    1
  0.49620893E+00  0.31570481E+00 -0.31610296E-01 -0.12837967E+01  0.20000000E-01   36    1
 VARIABLES= X1,X2,Y1,Y2,R,ID,RK
ZONE T="  262" 
SOLUTIONTIME=     0.13050001,STRANDID=   2
  0.28870344E+00  0.31123796E+00 -0.86233754E-01 -0.13182418E+01  0.20000000E-01    1    1
  0.33572825E+00  0.29322363E+00 -0.32608799E-01 -0.14549707E+01  0.20000000E-01    8    1
  0.37647486E+00  0.28641664E+00 -0.27528414E-01 -0.15069433E+01  0.20000000E-01   15    1
  0.41687499E+00  0.30429804E+00 -0.21635942E-01 -0.13708502E+01  0.20000000E-01   22    1
  0.45643944E+00  0.30996886E+00 -0.27885410E-01 -0.13272335E+01  0.20000000E-01   29    1
  0.49617729E+00  0.31441366E+00 -0.31645339E-01 -0.12936072E+01  0.20000000E-01   36    1
 VARIABLES= X1,X2,Y1,Y2,R,ID,RK
ZONE T="  264" 
SOLUTIONTIME=     0.13150001,STRANDID=   2
  0.28861720E+00  0.30991236E+00 -0.86233754E-01 -0.13280484E+01  0.20000000E-01    1    1
  0.33569564E+00  0.29176130E+00 -0.32608799E-01 -0.14647774E+01  0.20000000E-01    8    1
  0.37644733E+00  0.28490234E+00 -0.27528414E-01 -0.15167499E+01  0.20000000E-01   15    1
  0.41685338E+00  0.30291984E+00 -0.21594461E-01 -0.13806509E+01  0.20000000E-01   22    1
  0.45641155E+00  0.30863427E+00 -0.27891850E-01 -0.13370422E+01  0.20000000E-01   29    1
  0.49614562E+00  0.31311269E+00 -0.31680380E-01 -0.13034178E+01  0.20000000E-01   36    1
 VARIABLES= X1,X2,Y1,Y2,R,ID,RK
ZONE T="  266" 
SOLUTIONTIME=     0.13250001,STRANDID=   2
  0.28853097E+00  0.30857696E+00 -0.86233754E-01 -0.13378551E+01  0.20000000E-01    1    1
  0.33566303E+00  0.29028917E+00 -0.32608799E-01 -0.14745840E+01  0.20000000E-01    8    1
  0.37641981E+00  0.28337823E+00 -0.27528414E-01 -0.15265566E+01  0.20000000E-01   15    1
  0.41683182E+00  0.30153184E+00 -0.21552987E-01 -0.13904515E+01  0.20000000E-01   22    1
  0.45638366E+00  0.30728988E+00 -0.27898286E-01 -0.13468509E+01  0.20000000E-01   29    1
  0.49611391E+00  0.31180192E+00 -0.31715417E-01 -0.13132284E+01  0.20000000E-01   36    1
 VARIABLES= X1,X2,Y1,Y2,R,ID,RK
ZONE T="  268" 
SOLUTIONTIME=     0.13350001,STRANDID=   2
  0.28844474E+00  0.30723175E+00 -0.86233754E-01 -0.13476617E+01  0.20000000E-01    1    1
  0.33563042E+00  0.28880723E+00 -0.32608799E-01 -0.14843907E+01  0.20000000E-01    8    1
  0.37639228E+00  0.28184432E+00 -0.27528414E-01 -0.15363632E+01  0.20000000E-01   15    1
  0.41681030E+00  0.30013404E+00 -0.21511522E-01 -0.14002521E+01  0.20000000E-01   22    1
  0.45635575E+00  0.30593567E+00 -0.27904717E-01 -0.13566596E+01  0.20000000E-01   29    1
  0.49608217E+00  0.31048133E+00 -0.31750452E-01 -0.13230391E+01  0.20000000E-01   36    1
 VARIABLES= X1,X2,Y1,Y2,R,ID,RK
ZONE T="  270" 
SOLUTIONTIME=     0.13450001,STRANDID=   2
  0.28835850E+00  0.30587673E+00 -0.86233754E-01 -0.13574684E+01  0.20000000E-01    1    1
  0.33559781E+00  0.28731548E+00 -0.32608799E-01 -0.14941973E+01  0.20000000E-01    8    1
  0.37636475E+00  0.28030060E+00 -0.27528414E-01 -0.15461699E+01  0.20000000E-01   15    1
  0.41678882E+00  0.29872643E+00 -0.21470064E-01 -0.14100527E+01  0.20000000E-01   22    1
  0.45632784E+00  0.30457165E+00 -0.27911144E-01 -0.13664684E+01  0.20000000E-01   29    1
  0.49605039E+00  0.30915093E+00 -0.31785483E-01 -0.13328497E+01  0.20000000E-01   36    1
 VARIABLES= X1,X2,Y1,Y2,R,ID,RK
ZONE T="  272" 
SOLUTIONTIME=     0.13550001,STRANDID=   2
  0.28827227E+00  0.30451191E+00 -0.86233754E-01 -0.13672750E+01  0.20000000E-01    1    1
  0.33556520E+00  0.28581393E+00 -0.32608799E-01 -0.15040040E+01  0.20000000E-01    8    1
  0.37633722E+00  0.27874708E+00 -0.27528414E-01 -0.15559765E+01  0.20000000E-01   15    1
  0.41676738E+00  0.29730903E+00 -0.21428614E-01 -0.14198532E+01  0.20000000E-01   22    1
  0.45629993E+00  0.30319783E+00 -0.27917565E-01 -0.13762771E+01  0.20000000E-01   29    1
  0.49601858E+00  0.30781073E+00 -0.31820511E-01 -0.13426604E+01  0.20000000E-01   36    1
 VARIABLES= X1,X2,Y1,Y2,R,ID,RK
ZONE T="  274" 
SOLUTIONTIME=     0.13650001,STRANDID=   2
  0.28818604E+00  0.30313728E+00 -0.86233754E-01 -0.13770817E+01  0.20000000E-01    1    1
  0.33553259E+00  0.28430257E+00 -0.32608799E-01 -0.15138106E+01  0.20000000E-01    8    1
  0.37630969E+00  0.27718375E+00 -0.27528414E-01 -0.15657832E+01  0.20000000E-01   15    1
  0.41674598E+00  0.29588183E+00 -0.21387172E-01 -0.14296536E+01  0.20000000E-01   22    1
  0.45627201E+00  0.30181419E+00 -0.27923981E-01 -0.13860859E+01  0.20000000E-01   29    1
  0.49598673E+00  0.30646071E+00 -0.31855537E-01 -0.13524712E+01  0.20000000E-01   36    1
 VARIABLES= X1,X2,Y1,Y2,R,ID,RK
ZONE T="  276" 
SOLUTIONTIME=     0.13750001,STRANDID=   2
  0.28809980E+00  0.30175284E+00 -0.86233754E-01 -0.13868883E+01  0.20000000E-01    1    1
  0.33549999E+00  0.28278141E+00 -0.32608799E-01 -0.15236173E+01  0.20000000E-01    8    1
  0.37628216E+00  0.27561061E+00 -0.27528414E-01 -0.15755898E+01  0.20000000E-01   15    1
  0.41672462E+00  0.29444482E+00 -0.21345739E-01 -0.14394540E+01  0.20000000E-01   22    1
  0.45624408E+00  0.30042075E+00 -0.27930393E-01 -0.13958947E+01  0.20000000E-01   29    1
  0.49595485E+00  0.30510088E+00 -0.31890559E-01 -0.13622819E+01  0.20000000E-01   36    1
 VARIABLES= X1,X2,Y1,Y2,R,ID,RK
ZONE T="  278" 
SOLUTIONTIME=     0.13850001,STRANDID=   2
  0.28801357E+00  0.30035860E+00 -0.86233754E-01 -0.13966950E+01  0.20000000E-01    1    1
  0.33546738E+00  0.28125044E+00 -0.32608799E-01 -0.15334239E+01  0.20000000E-01    8    1
  0.37625464E+00  0.27402766E+00 -0.27528414E-01 -0.15853965E+01  0.20000000E-01   15    1
  0.41670331E+00  0.29299802E+00 -0.21304313E-01 -0.14492544E+01  0.20000000E-01   22    1
  0.45621614E+00  0.29901750E+00 -0.27936799E-01 -0.14057035E+01  0.20000000E-01   29    1
  0.49592294E+00  0.30373124E+00 -0.31925578E-01 -0.13720927E+01  0.20000000E-01   36    1
 VARIABLES= X1,X2,Y1,Y2,R,ID,RK
ZONE T="  280" 
SOLUTIONTIME=     0.13950001,STRANDID=   2
  0.28792733E+00  0.29895455E+00 -0.86233754E-01 -0.14065016E+01  0.20000000E-01    1    1
  0.33543477E+00  0.27970966E+00 -0.32608799E-01 -0.15432306E+01  0.20000000E-01    8    1
  0.37622711E+00  0.27243491E+00 -0.27528414E-01 -0.15952031E+01  0.20000000E-01   15    1
  0.41668204E+00  0.29154141E+00 -0.21262896E-01 -0.14590547E+01  0.20000000E-01   22    1
  0.45618820E+00  0.29760444E+00 -0.27943201E-01 -0.14155123E+01  0.20000000E-01   29    1
  0.49589098E+00  0.30235179E+00 -0.31960594E-01 -0.13819036E+01  0.20000000E-01   36    1
 VARIABLES= X1,X2,Y1,Y2,R,ID,RK
ZONE T="  282" 
SOLUTIONTIME=     0.14050001,STRANDID=   2
  0.28784110E+00  0.29754069E+00 -0.86233754E-01 -0.14163083E+01  0.20000000E-01    1    1
  0.33540216E+00  0.27815907E+00 -0.32608799E-01 -0.15530372E+01  0.20000000E-01    8    1
  0.33364889E+00  0.33286362E+00 -0.45042937E-01 -0.14488815E+01  0.20000000E-01    9    1
  0.37619958E+00  0.27083235E+00 -0.27528414E-01 -0.16050098E+01  0.20000000E-01   15    1
  0.41666080E+00  0.29007501E+00 -0.21221487E-01 -0.14688550E+01  0.20000000E-01   22    1
  0.45616025E+00  0.29618157E+00 -0.27949597E-01 -0.14253211E+01  0.20000000E-01   29    1
  0.49585900E+00  0.30096252E+00 -0.31995607E-01 -0.13917144E+01  0.20000000E-01   36    1
 VARIABLES= X1,X2,Y1,Y2,R,ID,RK
ZONE T="  284" 
SOLUTIONTIME=     0.14150001,STRANDID=   2
  0.28775487E+00  0.29611703E+00 -0.86233754E-01 -0.14261149E+01  0.20000000E-01    1    1
  0.33536955E+00  0.27659868E+00 -0.32608799E-01 -0.15628439E+01  0.20000000E-01    8    1
  0.33360385E+00  0.33140738E+00 -0.45042937E-01 -0.14586881E+01  0.20000000E-01    9    1
  0.37617205E+00  0.26921999E+00 -0.27528414E-01 -0.16148164E+01  0.20000000E-01   15    1
  0.41663961E+00  0.28859880E+00 -0.21180086E-01 -0.14786552E+01  0.20000000E-01   22    1
  0.42062824E+00  0.33208487E+00  0.40172917E-02 -0.14542346E+01  0.20000000E-01   23    1
  0.45613230E+00  0.29474889E+00 -0.27955988E-01 -0.14351299E+01  0.20000000E-01   29    1
  0.49582698E+00  0.29956345E+00 -0.32030616E-01 -0.14015253E+01  0.20000000E-01   36    1
 VARIABLES= X1,X2,Y1,Y2,R,ID,RK
ZONE T="  286" 
SOLUTIONTIME=     0.14250001,STRANDID=   2
  0.28766863E+00  0.29468356E+00 -0.86233754E-01 -0.14359216E+01  0.20000000E-01    1    1
  0.33533694E+00  0.27502848E+00 -0.32608799E-01 -0.15726505E+01  0.20000000E-01    8    1
  0.33355880E+00  0.32994134E+00 -0.45042937E-01 -0.14684948E+01  0.20000000E-01    9    1
  0.37614452E+00  0.26759782E+00 -0.27528414E-01 -0.16246231E+01  0.20000000E-01   15    1
  0.41661847E+00  0.28711280E+00 -0.21138693E-01 -0.14884554E+01  0.20000000E-01   22    1
  0.42063226E+00  0.33062328E+00  0.40172917E-02 -0.14640413E+01  0.20000000E-01   23    1
  0.45610434E+00  0.29330641E+00 -0.27962375E-01 -0.14449388E+01  0.20000000E-01   29    1
  0.49579492E+00  0.29815457E+00 -0.32065623E-01 -0.14113362E+01  0.20000000E-01   36    1
 VARIABLES= X1,X2,Y1,Y2,R,ID,RK
ZONE T="  288" 
SOLUTIONTIME=     0.14350001,STRANDID=   2
  0.28758240E+00  0.29324028E+00 -0.86233754E-01 -0.14457282E+01  0.20000000E-01    1    1
  0.33530433E+00  0.27344847E+00 -0.32608799E-01 -0.15824572E+01  0.20000000E-01    8    1
  0.33351376E+00  0.32846549E+00 -0.45042937E-01 -0.14783014E+01  0.20000000E-01    9    1
  0.37611699E+00  0.26596584E+00 -0.27528414E-01 -0.16344297E+01  0.20000000E-01   15    1
  0.41659736E+00  0.28561699E+00 -0.21097309E-01 -0.14982555E+01  0.20000000E-01   22    1
  0.42063628E+00  0.32915188E+00  0.40172917E-02 -0.14738479E+01  0.20000000E-01   23    1
  0.45607637E+00  0.29185411E+00 -0.27968755E-01 -0.14547477E+01  0.20000000E-01   29    1
  0.49576283E+00  0.29673587E+00 -0.32100626E-01 -0.14211471E+01  0.20000000E-01   36    1
 VARIABLES= X1,X2,Y1,Y2,R,ID,RK
ZONE T="  290" 
SOLUTIONTIME=     0.14450001,STRANDID=   2
  0.28749617E+00  0.29178720E+00 -0.86233754E-01 -0.14555349E+01  0.20000000E-01    1    1
  0.33527172E+00  0.27185866E+00 -0.32608799E-01 -0.15922638E+01  0.20000000E-01    8    1
  0.33346872E+00  0.32697983E+00 -0.45042937E-01 -0.14881081E+01  0.20000000E-01    9    1
  0.37608946E+00  0.26432406E+00 -0.27528414E-01 -0.16442364E+01  0.20000000E-01   15    1
  0.41657629E+00  0.28411139E+00 -0.21055934E-01 -0.15080556E+01  0.20000000E-01   22    1
  0.42064029E+00  0.32767068E+00  0.40172917E-02 -0.14836546E+01  0.20000000E-01   23    1
  0.45604840E+00  0.29039201E+00 -0.27975131E-01 -0.14645566E+01  0.20000000E-01   29    1
  0.49573070E+00  0.29530737E+00 -0.32135626E-01 -0.14309581E+01  0.20000000E-01   36    1
 VARIABLES= X1,X2,Y1,Y2,R,ID,RK
ZONE T="  292" 
SOLUTIONTIME=     0.14550001,STRANDID=   2
  0.28740993E+00  0.29032431E+00 -0.86233754E-01 -0.14653415E+01  0.20000000E-01    1    1
  0.33523912E+00  0.27025904E+00 -0.32608799E-01 -0.16020705E+01  0.20000000E-01    8    1
  0.33342367E+00  0.32548437E+00 -0.45042937E-01 -0.14979147E+01  0.20000000E-01    9    1
  0.37606194E+00  0.26267246E+00 -0.27528414E-01 -0.16540430E+01  0.20000000E-01   15    1
  0.37958423E+00  0.33234418E+00 -0.37596676E-02 -0.14462879E+01  0.20000000E-01   16    1
  0.41655527E+00  0.28259598E+00 -0.21014567E-01 -0.15178557E+01  0.20000000E-01   22    1
  0.42064431E+00  0.32617967E+00  0.40172917E-02 -0.14934612E+01  0.20000000E-01   23    1
  0.45602042E+00  0.28892009E+00 -0.27981502E-01 -0.14743655E+01  0.20000000E-01   29    1
  0.46350312E+00  0.33326959E+00  0.23796840E-01 -0.14450140E+01  0.20000000E-01   30    1
  0.49569854E+00  0.29386905E+00 -0.32170623E-01 -0.14407691E+01  0.20000000E-01   36    1
 VARIABLES= X1,X2,Y1,Y2,R,ID,RK
ZONE T="  294" 
SOLUTIONTIME=     0.14650001,STRANDID=   2
  0.28732370E+00  0.28885161E+00 -0.86233754E-01 -0.14751482E+01  0.20000000E-01    1    1
  0.33520651E+00  0.26864962E+00 -0.32608799E-01 -0.16118771E+01  0.20000000E-01    8    1
  0.33337863E+00  0.32397910E+00 -0.45042937E-01 -0.15077214E+01  0.20000000E-01    9    1
  0.37603441E+00  0.26101107E+00 -0.27528414E-01 -0.16638497E+01  0.20000000E-01   15    1
  0.37958046E+00  0.33089058E+00 -0.37784438E-02 -0.14560277E+01  0.20000000E-01   16    1
  0.41653428E+00  0.28107078E+00 -0.20973208E-01 -0.15276557E+01  0.20000000E-01   22    1
  0.42064833E+00  0.32467885E+00  0.40172917E-02 -0.15032679E+01  0.20000000E-01   23    1
  0.45599243E+00  0.28743837E+00 -0.27987867E-01 -0.14841744E+01  0.20000000E-01   29    1
  0.46352692E+00  0.33181722E+00  0.23796840E-01 -0.14548207E+01  0.20000000E-01   30    1
  0.49566634E+00  0.29242092E+00 -0.32205616E-01 -0.14505801E+01  0.20000000E-01   36    1
 VARIABLES= X1,X2,Y1,Y2,R,ID,RK
ZONE T="  296" 
SOLUTIONTIME=     0.14750001,STRANDID=   2
  0.28723746E+00  0.28736911E+00 -0.86233754E-01 -0.14849548E+01  0.20000000E-01    1    1
  0.28861152E+00  0.33240519E+00 -0.79763476E-01 -0.14404690E+01  0.20000000E-01    2    1
  0.33517390E+00  0.26703039E+00 -0.32608799E-01 -0.16216838E+01  0.20000000E-01    8    1
  0.33333359E+00  0.32246402E+00 -0.45042937E-01 -0.15175280E+01  0.20000000E-01    9    1
  0.37600688E+00  0.25933986E+00 -0.27528414E-01 -0.16736563E+01  0.20000000E-01   15    1
  0.37957667E+00  0.32942725E+00 -0.37973444E-02 -0.14657675E+01  0.20000000E-01   16    1
  0.41651334E+00  0.27953577E+00 -0.20931858E-01 -0.15374556E+01  0.20000000E-01   22    1
  0.42065235E+00  0.32316823E+00  0.40172917E-02 -0.15130745E+01  0.20000000E-01   23    1
  0.45596444E+00  0.28594684E+00 -0.27994227E-01 -0.14939833E+01  0.20000000E-01   29    1
  0.46355071E+00  0.33035505E+00  0.23796840E-01 -0.14646273E+01  0.20000000E-01   30    1
  0.49563411E+00  0.29096299E+00 -0.32240606E-01 -0.14603912E+01  0.20000000E-01   36    1
 VARIABLES= X1,X2,Y1,Y2,R,ID,RK
ZONE T="  298" 
SOLUTIONTIME=     0.14850001,STRANDID=   2
  0.28715123E+00  0.28587680E+00 -0.86233754E-01 -0.14947615E+01  0.20000000E-01    1    1
  0.28853171E+00  0.33095747E+00 -0.79820455E-01 -0.14501410E+01  0.20000000E-01    2    1
  0.33514129E+00  0.26540135E+00 -0.32608799E-01 -0.16314904E+01  0.20000000E-01    8    1
  0.33328855E+00  0.32093914E+00 -0.45042937E-01 -0.15273347E+01  0.20000000E-01    9    1
  0.37597935E+00  0.25765885E+00 -0.27528414E-01 -0.16834630E+01  0.20000000E-01   15    1
  0.37957286E+00  0.32795418E+00 -0.38163695E-02 -0.14755074E+01  0.20000000E-01   16    1
  0.41649244E+00  0.27799097E+00 -0.20890517E-01 -0.15472555E+01  0.20000000E-01   22    1