 VARIABLES= X1,X2,Y1,Y2,R
ZONE T="    1" 
SOLUTIONTIME=     0.00000000,STRANDID=   1
  0.50000000E+00  0.49998823E+00  0.00000000E+00 -0.15192397E-01  0.20000000E-01
 VARIABLES= X1,X2,Y1,Y2,R
ZONE T="    2" 
SOLUTIONTIME=     0.00154919,STRANDID=   1
  0.50000000E+00  0.49995293E+00  0.00000000E+00 -0.30384794E-01  0.20000000E-01
 VARIABLES= X1,X2,Y1,Y2,R
ZONE T="    3" 
SOLUTIONTIME=     0.00309839,STRANDID=   1
  0.50000000E+00  0.49989409E+00  0.00000000E+00 -0.45577191E-01  0.20000000E-01
 VARIABLES= X1,X2,Y1,Y2,R
ZONE T="    4" 
SOLUTIONTIME=     0.00464758,STRANDID=   1
  0.50000000E+00  0.49981171E+00  0.00000000E+00 -0.60769588E-01  0.20000000E-01
 VARIABLES= X1,X2,Y1,Y2,R
ZONE T="    5" 
SOLUTIONTIME=     0.00619677,STRANDID=   1
  0.50000000E+00  0.49970580E+00  0.00000000E+00 -0.75961986E-01  0.20000000E-01
 VARIABLES= X1,X2,Y1,Y2,R
ZONE T="    6" 
SOLUTIONTIME=     0.00774597,STRANDID=   1
  0.50000000E+00  0.49957635E+00  0.00000000E+00 -0.91154383E-01  0.20000000E-01
 VARIABLES= X1,X2,Y1,Y2,R
ZONE T="    7" 
SOLUTIONTIME=     0.00929516,STRANDID=   1
  0.50000000E+00  0.49942337E+00  0.00000000E+00 -0.10634678E+00  0.20000000E-01
 VARIABLES= X1,X2,Y1,Y2,R
ZONE T="    8" 
SOLUTIONTIME=     0.01084435,STRANDID=   1
  0.50000000E+00  0.49924685E+00  0.00000000E+00 -0.12153918E+00  0.20000000E-01
 VARIABLES= X1,X2,Y1,Y2,R
ZONE T="    9" 
SOLUTIONTIME=     0.01239355,STRANDID=   1
  0.50000000E+00  0.49904679E+00  0.00000000E+00 -0.13673157E+00  0.20000000E-01
 VARIABLES= X1,X2,Y1,Y2,R
ZONE T="   10" 
SOLUTIONTIME=     0.01394274,STRANDID=   1
  0.50000000E+00  0.49882320E+00  0.00000000E+00 -0.15192397E+00  0.20000000E-01
 VARIABLES= X1,X2,Y1,Y2,R
ZONE T="   11" 
SOLUTIONTIME=     0.01549193,STRANDID=   1
  0.50000000E+00  0.49857607E+00  0.00000000E+00 -0.16711637E+00  0.20000000E-01
 VARIABLES= X1,X2,Y1,Y2,R
ZONE T="   12" 
SOLUTIONTIME=     0.01704113,STRANDID=   1
  0.50000000E+00  0.49830541E+00  0.00000000E+00 -0.18230877E+00  0.20000000E-01
 VARIABLES= X1,X2,Y1,Y2,R
ZONE T="   13" 
SOLUTIONTIME=     0.01859032,STRANDID=   1
  0.50000000E+00  0.49801121E+00  0.00000000E+00 -0.19750116E+00  0.20000000E-01
 VARIABLES= X1,X2,Y1,Y2,R
ZONE T="   14" 
SOLUTIONTIME=     0.02013951,STRANDID=   1
  0.50000000E+00  0.49769348E+00  0.00000000E+00 -0.21269356E+00  0.20000000E-01
 VARIABLES= X1,X2,Y1,Y2,R
ZONE T="   15" 
SOLUTIONTIME=     0.02168871,STRANDID=   1
  0.50000000E+00  0.49735220E+00  0.00000000E+00 -0.22788596E+00  0.20000000E-01
 VARIABLES= X1,X2,Y1,Y2,R
ZONE T="   16" 
SOLUTIONTIME=     0.02323790,STRANDID=   1
  0.50000000E+00  0.49698740E+00  0.00000000E+00 -0.24307835E+00  0.20000000E-01
 VARIABLES= X1,X2,Y1,Y2,R
ZONE T="   17" 
SOLUTIONTIME=     0.02478709,STRANDID=   1
  0.50000000E+00  0.49659905E+00  0.00000000E+00 -0.25827075E+00  0.20000000E-01
 VARIABLES= X1,X2,Y1,Y2,R
ZONE T="   18" 
SOLUTIONTIME=     0.02633629,STRANDID=   1
  0.50000000E+00  0.49618717E+00  0.00000000E+00 -0.27346315E+00  0.20000000E-01
 VARIABLES= X1,X2,Y1,Y2,R
ZONE T="   19" 
SOLUTIONTIME=     0.02788548,STRANDID=   1
  0.50000000E+00  0.49575176E+00  0.00000000E+00 -0.28865554E+00  0.20000000E-01
 VARIABLES= X1,X2,Y1,Y2,R
ZONE T="   20" 
SOLUTIONTIME=     0.02943467,STRANDID=   1
  0.50000000E+00  0.49529281E+00  0.00000000E+00 -0.30384794E+00  0.20000000E-01
 VARIABLES= X1,X2,Y1,Y2,R
ZONE T="   21" 
SOLUTIONTIME=     0.03098387,STRANDID=   1
  0.50000000E+00  0.49481032E+00  0.00000000E+00 -0.31904034E+00  0.20000000E-01
 VARIABLES= X1,X2,Y1,Y2,R
ZONE T="   22" 
SOLUTIONTIME=     0.03253306,STRANDID=   1
  0.50000000E+00  0.49430430E+00  0.00000000E+00 -0.33423274E+00  0.20000000E-01
 VARIABLES= X1,X2,Y1,Y2,R
ZONE T="   23" 
SOLUTIONTIME=     0.03408225,STRANDID=   1
  0.50000000E+00  0.49377474E+00  0.00000000E+00 -0.34942513E+00  0.20000000E-01
 VARIABLES= X1,X2,Y1,Y2,R
ZONE T="   24" 
SOLUTIONTIME=     0.03563145,STRANDID=   1
  0.50000000E+00  0.49322164E+00  0.00000000E+00 -0.36461753E+00  0.20000000E-01
 VARIABLES= X1,X2,Y1,Y2,R
ZONE T="   25" 
SOLUTIONTIME=     0.03718064,STRANDID=   1
  0.50000000E+00  0.49264501E+00  0.00000000E+00 -0.37980993E+00  0.20000000E-01
 VARIABLES= X1,X2,Y1,Y2,R
ZONE T="   26" 
SOLUTIONTIME=     0.03872983,STRANDID=   1
  0.50000000E+00  0.49204485E+00  0.00000000E+00 -0.39500232E+00  0.20000000E-01
 VARIABLES= X1,X2,Y1,Y2,R
ZONE T="   27" 
SOLUTIONTIME=     0.04027903,STRANDID=   1
  0.50000000E+00  0.49142114E+00  0.00000000E+00 -0.41019472E+00  0.20000000E-01
 VARIABLES= X1,X2,Y1,Y2,R
ZONE T="   28" 
SOLUTIONTIME=     0.04182822,STRANDID=   1
  0.50000000E+00  0.49077390E+00  0.00000000E+00 -0.42538712E+00  0.20000000E-01
 VARIABLES= X1,X2,Y1,Y2,R
ZONE T="   29" 
SOLUTIONTIME=     0.04337741,STRANDID=   1
  0.50000000E+00  0.49010313E+00  0.00000000E+00 -0.44057952E+00  0.20000000E-01
 VARIABLES= X1,X2,Y1,Y2,R
ZONE T="   30" 
SOLUTIONTIME=     0.04492661,STRANDID=   1
  0.50000000E+00  0.48940882E+00  0.00000000E+00 -0.45577191E+00  0.20000000E-01
 VARIABLES= X1,X2,Y1,Y2,R
ZONE T="   31" 
SOLUTIONTIME=     0.04647580,STRANDID=   1
  0.50000000E+00  0.48869097E+00  0.00000000E+00 -0.47096431E+00  0.20000000E-01
 VARIABLES= X1,X2,Y1,Y2,R
ZONE T="   32" 
SOLUTIONTIME=     0.04802499,STRANDID=   1
  0.50000000E+00  0.48794959E+00  0.00000000E+00 -0.48615671E+00  0.20000000E-01
 VARIABLES= X1,X2,Y1,Y2,R
ZONE T="   33" 
SOLUTIONTIME=     0.04957419,STRANDID=   1
  0.50000000E+00  0.48718467E+00  0.00000000E+00 -0.50134910E+00  0.20000000E-01
 VARIABLES= X1,X2,Y1,Y2,R
ZONE T="   34" 
SOLUTIONTIME=     0.05112338,STRANDID=   1
  0.50000000E+00  0.48639621E+00  0.00000000E+00 -0.51654150E+00  0.20000000E-01
 VARIABLES= X1,X2,Y1,Y2,R
ZONE T="   35" 
SOLUTIONTIME=     0.05267257,STRANDID=   1
  0.50000000E+00  0.48558422E+00  0.00000000E+00 -0.53173390E+00  0.20000000E-01
 VARIABLES= X1,X2,Y1,Y2,R
ZONE T="   36" 
SOLUTIONTIME=     0.05422177,STRANDID=   1
  0.50000000E+00  0.48474870E+00  0.00000000E+00 -0.54692630E+00  0.20000000E-01
 VARIABLES= X1,X2,Y1,Y2,R
ZONE T="   37" 
SOLUTIONTIME=     0.05577096,STRANDID=   1
  0.50000000E+00  0.48388964E+00  0.00000000E+00 -0.56211869E+00  0.20000000E-01
 VARIABLES= X1,X2,Y1,Y2,R
ZONE T="   38" 
SOLUTIONTIME=     0.05732015,STRANDID=   1
  0.50000000E+00  0.48300704E+00  0.00000000E+00 -0.57731109E+00  0.20000000E-01
 VARIABLES= X1,X2,Y1,Y2,R
ZONE T="   39" 
SOLUTIONTIME=     0.05886935,STRANDID=   1
  0.50000000E+00  0.48210090E+00  0.00000000E+00 -0.59250349E+00  0.20000000E-01
 VARIABLES= X1,X2,Y1,Y2,R
ZONE T="   40" 
SOLUTIONTIME=     0.06041854,STRANDID=   1
  0.50000000E+00  0.48117123E+00  0.00000000E+00 -0.60769588E+00  0.20000000E-01
 VARIABLES= X1,X2,Y1,Y2,R
ZONE T="   41" 
SOLUTIONTIME=     0.06196773,STRANDID=   1
  0.50000000E+00  0.48021803E+00  0.00000000E+00 -0.62288828E+00  0.20000000E-01
 VARIABLES= X1,X2,Y1,Y2,R
ZONE T="   42" 
SOLUTIONTIME=     0.06351693,STRANDID=   1
  0.50000000E+00  0.47924128E+00  0.00000000E+00 -0.63808068E+00  0.20000000E-01
 VARIABLES= X1,X2,Y1,Y2,R
ZONE T="   43" 
SOLUTIONTIME=     0.06506612,STRANDID=   1
  0.50000000E+00  0.47824100E+00  0.00000000E+00 -0.65327308E+00  0.20000000E-01
 VARIABLES= X1,X2,Y1,Y2,R
ZONE T="   44" 
SOLUTIONTIME=     0.06661531,STRANDID=   1
  0.50000000E+00  0.47721719E+00  0.00000000E+00 -0.66846547E+00  0.20000000E-01
 VARIABLES= X1,X2,Y1,Y2,R
ZONE T="   45" 
SOLUTIONTIME=     0.06816451,STRANDID=   1
  0.50000000E+00  0.47616984E+00  0.00000000E+00 -0.68365787E+00  0.20000000E-01
 VARIABLES= X1,X2,Y1,Y2,R
ZONE T="   46" 
SOLUTIONTIME=     0.06971370,STRANDID=   1
  0.50000000E+00  0.47509895E+00  0.00000000E+00 -0.69885027E+00  0.20000000E-01
 VARIABLES= X1,X2,Y1,Y2,R
ZONE T="   47" 
SOLUTIONTIME=     0.07126289,STRANDID=   1
  0.50000000E+00  0.47400453E+00  0.00000000E+00 -0.71404266E+00  0.20000000E-01
 VARIABLES= X1,X2,Y1,Y2,R
ZONE T="   48" 
SOLUTIONTIME=     0.07281209,STRANDID=   1
  0.50000000E+00  0.47288657E+00  0.00000000E+00 -0.72923506E+00  0.20000000E-01
 VARIABLES= X1,X2,Y1,Y2,R
ZONE T="   49" 
SOLUTIONTIME=     0.07436128,STRANDID=   1
  0.50000000E+00  0.47174508E+00  0.00000000E+00 -0.74442746E+00  0.20000000E-01
 VARIABLES= X1,X2,Y1,Y2,R
ZONE T="   50" 
SOLUTIONTIME=     0.07591047,STRANDID=   1
  0.50000000E+00  0.47058005E+00  0.00000000E+00 -0.75961986E+00  0.20000000E-01
 VARIABLES= X1,X2,Y1,Y2,R
ZONE T="   51" 
SOLUTIONTIME=     0.07745967,STRANDID=   1
  0.50000000E+00  0.46939148E+00  0.00000000E+00 -0.77481225E+00  0.20000000E-01
 VARIABLES= X1,X2,Y1,Y2,R
ZONE T="   52" 
SOLUTIONTIME=     0.07900886,STRANDID=   1
  0.50000000E+00  0.46817938E+00  0.00000000E+00 -0.79000465E+00  0.20000000E-01
 VARIABLES= X1,X2,Y1,Y2,R
ZONE T="   53" 
SOLUTIONTIME=     0.08055805,STRANDID=   1
  0.50000000E+00  0.46694374E+00  0.00000000E+00 -0.80519705E+00  0.20000000E-01
 VARIABLES= X1,X2,Y1,Y2,R
ZONE T="   54" 
SOLUTIONTIME=     0.08210725,STRANDID=   1
  0.50000000E+00  0.46568457E+00  0.00000000E+00 -0.82038944E+00  0.20000000E-01
 VARIABLES= X1,X2,Y1,Y2,R
ZONE T="   55" 
SOLUTIONTIME=     0.08365644,STRANDID=   1
  0.50000000E+00  0.46440186E+00  0.00000000E+00 -0.83558184E+00  0.20000000E-01
 VARIABLES= X1,X2,Y1,Y2,R
ZONE T="   56" 
SOLUTIONTIME=     0.08520563,STRANDID=   1
  0.50000000E+00  0.46309561E+00  0.00000000E+00 -0.85077424E+00  0.20000000E-01
 VARIABLES= X1,X2,Y1,Y2,R
ZONE T="   57" 
SOLUTIONTIME=     0.08675483,STRANDID=   1
  0.50000000E+00  0.46176583E+00  0.00000000E+00 -0.86596663E+00  0.20000000E-01
 VARIABLES= X1,X2,Y1,Y2,R
ZONE T="   58" 
SOLUTIONTIME=     0.08830402,STRANDID=   1
  0.50000000E+00  0.46041251E+00  0.00000000E+00 -0.88115903E+00  0.20000000E-01
 VARIABLES= X1,X2,Y1,Y2,R
ZONE T="   59" 
SOLUTIONTIME=     0.08985321,STRANDID=   1
  0.50000000E+00  0.45903566E+00  0.00000000E+00 -0.89635143E+00  0.20000000E-01
 VARIABLES= X1,X2,Y1,Y2,R
ZONE T="   60" 
SOLUTIONTIME=     0.09140241,STRANDID=   1
  0.50000000E+00  0.45763527E+00  0.00000000E+00 -0.91154383E+00  0.20000000E-01
 VARIABLES= X1,X2,Y1,Y2,R
ZONE T="   61" 
SOLUTIONTIME=     0.09295160,STRANDID=   1
  0.50000000E+00  0.45621135E+00  0.00000000E+00 -0.92673622E+00  0.20000000E-01
 VARIABLES= X1,X2,Y1,Y2,R
ZONE T="   62" 
SOLUTIONTIME=     0.09450079,STRANDID=   1
  0.50000000E+00  0.45476388E+00  0.00000000E+00 -0.94192862E+00  0.20000000E-01
 VARIABLES= X1,X2,Y1,Y2,R
ZONE T="   63" 
SOLUTIONTIME=     0.09604999,STRANDID=   1
  0.50000000E+00  0.45329289E+00  0.00000000E+00 -0.95712102E+00  0.20000000E-01
 VARIABLES= X1,X2,Y1,Y2,R
ZONE T="   64" 
SOLUTIONTIME=     0.09759918,STRANDID=   1
  0.50000000E+00  0.45179835E+00  0.00000000E+00 -0.97231341E+00  0.20000000E-01
 VARIABLES= X1,X2,Y1,Y2,R
ZONE T="   65" 
SOLUTIONTIME=     0.09914837,STRANDID=   1
  0.50000000E+00  0.45028028E+00  0.00000000E+00 -0.98750581E+00  0.20000000E-01
 VARIABLES= X1,X2,Y1,Y2,R
ZONE T="   66" 
SOLUTIONTIME=     0.10069757,STRANDID=   1
  0.50000000E+00  0.44873868E+00  0.00000000E+00 -0.10026982E+01  0.20000000E-01
 VARIABLES= X1,X2,Y1,Y2,R
ZONE T="   67" 
SOLUTIONTIME=     0.10224676,STRANDID=   1
  0.50000000E+00  0.44717354E+00  0.00000000E+00 -0.10178906E+01  0.20000000E-01
 VARIABLES= X1,X2,Y1,Y2,R
ZONE T="   68" 
SOLUTIONTIME=     0.10379595,STRANDID=   1
  0.50000000E+00  0.44558486E+00  0.00000000E+00 -0.10330830E+01  0.20000000E-01
 VARIABLES= X1,X2,Y1,Y2,R
ZONE T="   69" 
SOLUTIONTIME=     0.10534515,STRANDID=   1
  0.50000000E+00  0.44397265E+00  0.00000000E+00 -0.10482754E+01  0.20000000E-01
 VARIABLES= X1,X2,Y1,Y2,R
ZONE T="   70" 
SOLUTIONTIME=     0.10689434,STRANDID=   1
  0.50000000E+00  0.44233690E+00  0.00000000E+00 -0.10634678E+01  0.20000000E-01
 VARIABLES= X1,X2,Y1,Y2,R
ZONE T="   71" 
SOLUTIONTIME=     0.10844353,STRANDID=   1
  0.50000000E+00  0.44067761E+00  0.00000000E+00 -0.10786602E+01  0.20000000E-01
 VARIABLES= X1,X2,Y1,Y2,R
ZONE T="   72" 
SOLUTIONTIME=     0.10999273,STRANDID=   1
  0.50000000E+00  0.43899479E+00  0.00000000E+00 -0.10938526E+01  0.20000000E-01
 VARIABLES= X1,X2,Y1,Y2,R
ZONE T="   73" 
SOLUTIONTIME=     0.11154192,STRANDID=   1
  0.50000000E+00  0.43728843E+00  0.00000000E+00 -0.11090450E+01  0.20000000E-01
 VARIABLES= X1,X2,Y1,Y2,R
ZONE T="   74" 
SOLUTIONTIME=     0.11309111,STRANDID=   1
  0.50000000E+00  0.43555854E+00  0.00000000E+00 -0.11242374E+01  0.20000000E-01
 VARIABLES= X1,X2,Y1,Y2,R
ZONE T="   75" 
SOLUTIONTIME=     0.11464031,STRANDID=   1
  0.50000000E+00  0.43380511E+00  0.00000000E+00 -0.11394298E+01  0.20000000E-01
 VARIABLES= X1,X2,Y1,Y2,R
ZONE T="   76" 
SOLUTIONTIME=     0.11618950,STRANDID=   1
  0.50000000E+00  0.43202815E+00  0.00000000E+00 -0.11546222E+01  0.20000000E-01
 VARIABLES= X1,X2,Y1,Y2,R
ZONE T="   77" 
SOLUTIONTIME=     0.11773869,STRANDID=   1
  0.50000000E+00  0.43022765E+00  0.00000000E+00 -0.11698146E+01  0.20000000E-01
 VARIABLES= X1,X2,Y1,Y2,R
ZONE T="   78" 
SOLUTIONTIME=     0.11928789,STRANDID=   1
  0.50000000E+00  0.42840361E+00  0.00000000E+00 -0.11850070E+01  0.20000000E-01
 VARIABLES= X1,X2,Y1,Y2,R
ZONE T="   79" 
SOLUTIONTIME=     0.12083708,STRANDID=   1
  0.50000000E+00  0.42655604E+00  0.00000000E+00 -0.12001994E+01  0.20000000E-01
 VARIABLES= X1,X2,Y1,Y2,R
ZONE T="   80" 
SOLUTIONTIME=     0.12238627,STRANDID=   1
  0.50000000E+00  0.42468493E+00  0.00000000E+00 -0.12153918E+01  0.20000000E-01
 VARIABLES= X1,X2,Y1,Y2,R
ZONE T="   81" 
SOLUTIONTIME=     0.12393547,STRANDID=   1
  0.50000000E+00  0.42279028E+00  0.00000000E+00 -0.12305842E+01  0.20000000E-01
 VARIABLES= X1,X2,Y1,Y2,R
ZONE T="   82" 
SOLUTIONTIME=     0.12548466,STRANDID=   1
  0.50000000E+00  0.42087210E+00  0.00000000E+00 -0.12457766E+01  0.20000000E-01
 VARIABLES= X1,X2,Y1,Y2,R
ZONE T="   83" 
SOLUTIONTIME=     0.12703385,STRANDID=   1
  0.50000000E+00  0.41893038E+00  0.00000000E+00 -0.12609690E+01  0.20000000E-01
 VARIABLES= X1,X2,Y1,Y2,R
ZONE T="   84" 
SOLUTIONTIME=     0.12858305,STRANDID=   1
  0.50000000E+00  0.41696513E+00  0.00000000E+00 -0.12761614E+01  0.20000000E-01
 VARIABLES= X1,X2,Y1,Y2,R
ZONE T="   85" 
SOLUTIONTIME=     0.13013224,STRANDID=   1
  0.50000000E+00  0.41497634E+00  0.00000000E+00 -0.12913538E+01  0.20000000E-01
 VARIABLES= X1,X2,Y1,Y2,R
ZONE T="   86" 
SOLUTIONTIME=     0.13168143,STRANDID=   1
  0.50000000E+00  0.41296402E+00  0.00000000E+00 -0.13065462E+01  0.20000000E-01
 VARIABLES= X1,X2,Y1,Y2,R
ZONE T="   87" 
SOLUTIONTIME=     0.13323063,STRANDID=   1
  0.50000000E+00  0.41092816E+00  0.00000000E+00 -0.13217385E+01  0.20000000E-01
 VARIABLES= X1,X2,Y1,Y2,R
ZONE T="   88" 
SOLUTIONTIME=     0.13477982,STRANDID=   1
  0.50000000E+00  0.40886876E+00  0.00000000E+00 -0.13369309E+01  0.20000000E-01
 VARIABLES= X1,X2,Y1,Y2,R
ZONE T="   89" 
SOLUTIONTIME=     0.13632901,STRANDID=   1
  0.50000000E+00  0.40678583E+00  0.00000000E+00 -0.13521233E+01  0.20000000E-01
 VARIABLES= X1,X2,Y1,Y2,R
ZONE T="   90" 
SOLUTIONTIME=     0.13787821,STRANDID=   1
  0.50000000E+00  0.40467936E+00  0.00000000E+00 -0.13673157E+01  0.20000000E-01
 VARIABLES= X1,X2,Y1,Y2,R
ZONE T="   91" 
SOLUTIONTIME=     0.13942740,STRANDID=   1
  0.50000000E+00  0.40254936E+00  0.00000000E+00 -0.13825081E+01  0.20000000E-01
 VARIABLES= X1,X2,Y1,Y2,R
ZONE T="   92" 
SOLUTIONTIME=     0.14097659,STRANDID=   1
  0.50000000E+00  0.40039582E+00  0.00000000E+00 -0.13977005E+01  0.20000000E-01
 VARIABLES= X1,X2,Y1,Y2,R
ZONE T="   93" 
SOLUTIONTIME=     0.14252579,STRANDID=   1
  0.50000000E+00  0.39821874E+00  0.00000000E+00 -0.14128929E+01  0.20000000E-01
 VARIABLES= X1,X2,Y1,Y2,R
ZONE T="   94" 
SOLUTIONTIME=     0.14407498,STRANDID=   1
  0.50000000E+00  0.39601813E+00  0.00000000E+00 -0.14280853E+01  0.20000000E-01
 VARIABLES= X1,X2,Y1,Y2,R
ZONE T="   95" 
SOLUTIONTIME=     0.14562417,STRANDID=   1
  0.50000000E+00  0.39379398E+00  0.00000000E+00 -0.14432777E+01  0.20000000E-01
 VARIABLES= X1,X2,Y1,Y2,R
ZONE T="   96" 
SOLUTIONTIME=     0.14717337,STRANDID=   1
  0.50000000E+00  0.39154629E+00  0.00000000E+00 -0.14584701E+01  0.20000000E-01
 VARIABLES= X1,X2,Y1,Y2,R
ZONE T="   97" 
SOLUTIONTIME=     0.14872256,STRANDID=   1
  0.50000000E+00  0.38927507E+00  0.00000000E+00 -0.14736625E+01  0.20000000E-01
 VARIABLES= X1,X2,Y1,Y2,R
ZONE T="   98" 
SOLUTIONTIME=     0.15027175,STRANDID=   1
  0.50000000E+00  0.38698032E+00  0.00000000E+00 -0.14888549E+01  0.20000000E-01
 VARIABLES= X1,X2,Y1,Y2,R
ZONE T="   99" 
SOLUTIONTIME=     0.15182095,STRANDID=   1
  0.50000000E+00  0.38466203E+00  0.00000000E+00 -0.15040473E+01  0.20000000E-01
 VARIABLES= X1,X2,Y1,Y2,R
ZONE T="  100" 
SOLUTIONTIME=     0.15337014,STRANDID=   1
  0.50000000E+00  0.38232020E+00  0.00000000E+00 -0.15192397E+01  0.20000000E-01
 VARIABLES= X1,X2,Y1,Y2,R
ZONE T="  101" 
SOLUTIONTIME=     0.15491933,STRANDID=   1
  0.50000000E+00  0.37995483E+00  0.00000000E+00 -0.15344321E+01  0.20000000E-01
 VARIABLES= X1,X2,Y1,Y2,R
ZONE T="  102" 
SOLUTIONTIME=     0.15646853,STRANDID=   1
  0.50000000E+00  0.37756593E+00  0.00000000E+00 -0.15496245E+01  0.20000000E-01
 VARIABLES= X1,X2,Y1,Y2,R
ZONE T="  103" 
SOLUTIONTIME=     0.15801772,STRANDID=   1
  0.50000000E+00  0.37515350E+00  0.00000000E+00 -0.15648169E+01  0.20000000E-01
 VARIABLES= X1,X2,Y1,Y2,R
ZONE T="  104" 
SOLUTIONTIME=     0.15956691,STRANDID=   1
  0.50000000E+00  0.37271753E+00  0.00000000E+00 -0.15800093E+01  0.20000000E-01
 VARIABLES= X1,X2,Y1,Y2,R
ZONE T="  105" 
SOLUTIONTIME=     0.16111611,STRANDID=   1
  0.50000000E+00  0.37025802E+00  0.00000000E+00 -0.15952017E+01  0.20000000E-01
 VARIABLES= X1,X2,Y1,Y2,R
ZONE T="  106" 
SOLUTIONTIME=     0.16266530,STRANDID=   1
  0.50000000E+00  0.36777497E+00  0.00000000E+00 -0.16103941E+01  0.20000000E-01
 VARIABLES= X1,X2,Y1,Y2,R
ZONE T="  107" 
SOLUTIONTIME=     0.16421449,STRANDID=   1
  0.50000000E+00  0.36526839E+00  0.00000000E+00 -0.16255865E+01  0.20000000E-01
 VARIABLES= X1,X2,Y1,Y2,R
ZONE T="  108" 
SOLUTIONTIME=     0.16576369,STRANDID=   1
  0.50000000E+00  0.36273828E+00  0.00000000E+00 -0.16407789E+01  0.20000000E-01
 VARIABLES= X1,X2,Y1,Y2,R
ZONE T="  109" 
SOLUTIONTIME=     0.16731288,STRANDID=   1
  0.50000000E+00  0.36018463E+00  0.00000000E+00 -0.16559713E+01  0.20000000E-01
 VARIABLES= X1,X2,Y1,Y2,R
ZONE T="  110" 
SOLUTIONTIME=     0.16886207,STRANDID=   1
  0.50000000E+00  0.35760744E+00  0.00000000E+00 -0.16711637E+01  0.20000000E-01
 VARIABLES= X1,X2,Y1,Y2,R
ZONE T="  111" 
SOLUTIONTIME=     0.17041127,STRANDID=   1
  0.50000000E+00  0.35500672E+00  0.00000000E+00 -0.16863561E+01  0.20000000E-01
 VARIABLES= X1,X2,Y1,Y2,R
ZONE T="  112" 
SOLUTIONTIME=     0.17196046,STRANDID=   1
  0.50000000E+00  0.35238246E+00  0.00000000E+00 -0.17015485E+01  0.20000000E-01
 VARIABLES= X1,X2,Y1,Y2,R
ZONE T="  113" 
SOLUTIONTIME=     0.17350965,STRANDID=   1
  0.50000000E+00  0.34973466E+00  0.00000000E+00 -0.17167409E+01  0.20000000E-01
 VARIABLES= X1,X2,Y1,Y2,R
ZONE T="  114" 
SOLUTIONTIME=     0.17505885,STRANDID=   1
  0.50000000E+00  0.34706333E+00  0.00000000E+00 -0.17319333E+01  0.20000000E-01
 VARIABLES= X1,X2,Y1,Y2,R
ZONE T="  115" 
SOLUTIONTIME=     0.17660804,STRANDID=   1
  0.50000000E+00  0.34436846E+00  0.00000000E+00 -0.17471257E+01  0.20000000E-01
 VARIABLES= X1,X2,Y1,Y2,R
ZONE T="  116" 
SOLUTIONTIME=     0.17815723,STRANDID=   1
  0.50000000E+00  0.34165006E+00  0.00000000E+00 -0.17623181E+01  0.20000000E-01
 VARIABLES= X1,X2,Y1,Y2,R
ZONE T="  117" 
SOLUTIONTIME=     0.17970643,STRANDID=   1
  0.50000000E+00  0.33890812E+00  0.00000000E+00 -0.17775105E+01  0.20000000E-01
 VARIABLES= X1,X2,Y1,Y2,R
ZONE T="  118" 
SOLUTIONTIME=     0.18125562,STRANDID=   1
  0.50000000E+00  0.33614264E+00  0.00000000E+00 -0.17927029E+01  0.20000000E-01
 VARIABLES= X1,X2,Y1,Y2,R
ZONE T="  119" 
SOLUTIONTIME=     0.18280481,STRANDID=   1
  0.50000000E+00  0.33335363E+00  0.00000000E+00 -0.18078953E+01  0.20000000E-01
 VARIABLES= X1,X2,Y1,Y2,R
ZONE T="  120" 
SOLUTIONTIME=     0.18435401,STRANDID=   1
  0.50000000E+00  0.33054109E+00  0.00000000E+00 -0.18230877E+01  0.20000000E-01
 VARIABLES= X1,X2,Y1,Y2,R
ZONE T="  121" 
SOLUTIONTIME=     0.18590320,STRANDID=   1
  0.50000000E+00  0.32770500E+00  0.00000000E+00 -0.18382800E+01  0.20000000E-01
 VARIABLES= X1,X2,Y1,Y2,R
ZONE T="  122" 
SOLUTIONTIME=     0.18745239,STRANDID=   1
  0.50000000E+00  0.32484538E+00  0.00000000E+00 -0.18534724E+01  0.20000000E-01
 VARIABLES= X1,X2,Y1,Y2,R
ZONE T="  123" 
SOLUTIONTIME=     0.18900159,STRANDID=   1
  0.50000000E+00  0.32196223E+00  0.00000000E+00 -0.18686648E+01  0.20000000E-01
 VARIABLES= X1,X2,Y1,Y2,R
ZONE T="  124" 
SOLUTIONTIME=     0.19055078,STRANDID=   1
  0.50000000E+00  0.31905554E+00  0.00000000E+00 -0.18838572E+01  0.20000000E-01
 VARIABLES= X1,X2,Y1,Y2,R
ZONE T="  125" 
SOLUTIONTIME=     0.19209997,STRANDID=   1
  0.50000000E+00  0.31612531E+00  0.00000000E+00 -0.18990496E+01  0.20000000E-01
 VARIABLES= X1,X2,Y1,Y2,R
ZONE T="  126" 
SOLUTIONTIME=     0.19364917,STRANDID=   1
  0.50000000E+00  0.31317155E+00  0.00000000E+00 -0.19142420E+01  0.20000000E-01
 VARIABLES= X1,X2,Y1,Y2,R
ZONE T="  127" 
SOLUTIONTIME=     0.19519836,STRANDID=   1
  0.50000000E+00  0.31019425E+00  0.00000000E+00 -0.19294344E+01  0.20000000E-01
 VARIABLES= X1,X2,Y1,Y2,R
ZONE T="  128" 
SOLUTIONTIME=     0.19674755,STRANDID=   1
  0.50000000E+00  0.30719341E+00  0.00000000E+00 -0.19446268E+01  0.20000000E-01
 VARIABLES= X1,X2,Y1,Y2,R
ZONE T="  129" 
SOLUTIONTIME=     0.19829675,STRANDID=   1
  0.50000000E+00  0.30416904E+00  0.00000000E+00 -0.19598192E+01  0.20000000E-01
 VARIABLES= X1,X2,Y1,Y2,R
ZONE T="  130" 
SOLUTIONTIME=     0.19984594,STRANDID=   1
  0.50000000E+00  0.30112113E+00  0.00000000E+00 -0.19750116E+01  0.20000000E-01
 VARIABLES= X1,X2,Y1,Y2,R
ZONE T="  131" 
SOLUTIONTIME=     0.20139513,STRANDID=   1
  0.50000000E+00  0.29804969E+00  0.00000000E+00 -0.19902040E+01  0.20000000E-01
 VARIABLES= X1,X2,Y1,Y2,R
ZONE T="  132" 
SOLUTIONTIME=     0.20294433,STRANDID=   1
  0.50000000E+00  0.29495471E+00  0.00000000E+00 -0.20053964E+01  0.20000000E-01
 VARIABLES= X1,X2,Y1,Y2,R
ZONE T="  133" 
SOLUTIONTIME=     0.20449352,STRANDID=   1
  0.50000000E+00  0.29183620E+00  0.00000000E+00 -0.20205888E+01  0.20000000E-01
 VARIABLES= X1,X2,Y1,Y2,R
ZONE T="  134" 
SOLUTIONTIME=     0.20604271,STRANDID=   1
  0.50000000E+00  0.28869415E+00  0.00000000E+00 -0.20357812E+01  0.20000000E-01
 VARIABLES= X1,X2,Y1,Y2,R
ZONE T="  135" 
SOLUTIONTIME=     0.20759191,STRANDID=   1
  0.50000000E+00  0.28552856E+00  0.00000000E+00 -0.20509736E+01  0.20000000E-01
 VARIABLES= X1,X2,Y1,Y2,R
ZONE T="  136" 
SOLUTIONTIME=     0.20914110,STRANDID=   1
  0.50000000E+00  0.28233944E+00  0.00000000E+00 -0.20661660E+01  0.20000000E-01
 VARIABLES= X1,X2,Y1,Y2,R
ZONE T="  137" 
SOLUTIONTIME=     0.21069029,STRANDID=   1
  0.50000000E+00  0.27912678E+00  0.00000000E+00 -0.20813584E+01  0.20000000E-01
 VARIABLES= X1,X2,Y1,Y2,R
ZONE T="  138" 
SOLUTIONTIME=     0.21223949,STRANDID=   1
  0.50000000E+00  0.27589059E+00  0.00000000E+00 -0.20965508E+01  0.20000000E-01
 VARIABLES= X1,X2,Y1,Y2,R
ZONE T="  139" 
SOLUTIONTIME=     0.21378868,STRANDID=   1
  0.50000000E+00  0.27263085E+00  0.00000000E+00 -0.21117432E+01  0.20000000E-01
 VARIABLES= X1,X2,Y1,Y2,R
ZONE T="  140" 
SOLUTIONTIME=     0.21533787,STRANDID=   1
  0.50000000E+00  0.26934759E+00  0.00000000E+00 -0.21269356E+01  0.20000000E-01
 VARIABLES= X1,X2,Y1,Y2,R
ZONE T="  141" 
SOLUTIONTIME=     0.21688707,STRANDID=   1
  0.50000000E+00  0.26604079E+00  0.00000000E+00 -0.21421280E+01  0.20000000E-01
 VARIABLES= X1,X2,Y1,Y2,R
ZONE T="  142" 
SOLUTIONTIME=     0.21843626,STRANDID=   1
  0.50000000E+00  0.26271045E+00  0.00000000E+00 -0.21573204E+01  0.20000000E-01
 VARIABLES= X1,X2,Y1,Y2,R
ZONE T="  143" 
SOLUTIONTIME=     0.21998545,STRANDID=   1
  0.50000000E+00  0.25935657E+00  0.00000000E+00 -0.21725128E+01  0.20000000E-01
 VARIABLES= X1,X2,Y1,Y2,R
ZONE T="  144" 
SOLUTIONTIME=     0.22153465,STRANDID=   1
  0.50000000E+00  0.25597916E+00  0.00000000E+00 -0.21877052E+01  0.20000000E-01
 VARIABLES= X1,X2,Y1,Y2,R
ZONE T="  145" 
SOLUTIONTIME=     0.22308384,STRANDID=   1
  0.50000000E+00  0.25257822E+00  0.00000000E+00 -0.22028976E+01  0.20000000E-01
 VARIABLES= X1,X2,Y1,Y2,R
ZONE T="  146" 
SOLUTIONTIME=     0.22463303,STRANDID=   1
  0.50000000E+00  0.24915373E+00  0.00000000E+00 -0.22180900E+01  0.20000000E-01
 VARIABLES= X1,X2,Y1,Y2,R
ZONE T="  147" 
SOLUTIONTIME=     0.22618223,STRANDID=   1
  0.50000000E+00  0.24570572E+00  0.00000000E+00 -0.22332824E+01  0.20000000E-01
 VARIABLES= X1,X2,Y1,Y2,R
ZONE T="  148" 
SOLUTIONTIME=     0.22773142,STRANDID=   1
  0.50000000E+00  0.24223416E+00  0.00000000E+00 -0.22484748E+01  0.20000000E-01
 VARIABLES= X1,X2,Y1,Y2,R
ZONE T="  149" 
SOLUTIONTIME=     0.22928061,STRANDID=   1
  0.50000000E+00  0.23873907E+00  0.00000000E+00 -0.22636672E+01  0.20000000E-01
 VARIABLES= X1,X2,Y1,Y2,R
ZONE T="  150" 
SOLUTIONTIME=     0.23082981,STRANDID=   1
  0.50000000E+00  0.23522045E+00  0.00000000E+00 -0.22788596E+01  0.20000000E-01
 VARIABLES= X1,X2,Y1,Y2,R
ZONE T="  151" 
SOLUTIONTIME=     0.23237900,STRANDID=   1
  0.50000000E+00  0.23167828E+00  0.00000000E+00 -0.22940520E+01  0.20000000E-01
 VARIABLES= X1,X2,Y1,Y2,R
ZONE T="  152" 
SOLUTIONTIME=     0.23392819,STRANDID=   1
  0.50000000E+00  0.22811259E+00  0.00000000E+00 -0.23092444E+01  0.20000000E-01
 VARIABLES= X1,X2,Y1,Y2,R
ZONE T="  153" 
SOLUTIONTIME=     0.23547739,STRANDID=   1
  0.50000000E+00  0.22452335E+00  0.00000000E+00 -0.23244368E+01  0.20000000E-01
 VARIABLES= X1,X2,Y1,Y2,R
ZONE T="  154" 
SOLUTIONTIME=     0.23702658,STRANDID=   1
  0.50000000E+00  0.22091058E+00  0.00000000E+00 -0.23396292E+01  0.20000000E-01
 VARIABLES= X1,X2,Y1,Y2,R
ZONE T="  155" 
SOLUTIONTIME=     0.23857577,STRANDID=   1
  0.50000000E+00  0.21727428E+00  0.00000000E+00 -0.23548216E+01  0.20000000E-01
 VARIABLES= X1,X2,Y1,Y2,R
ZONE T="  156" 
SOLUTIONTIME=     0.24012497,STRANDID=   1
  0.50000000E+00  0.21361443E+00  0.00000000E+00 -0.23700139E+01  0.20000000E-01
 VARIABLES= X1,X2,Y1,Y2,R
ZONE T="  157" 
SOLUTIONTIME=     0.24167416,STRANDID=   1
  0.50000000E+00  0.20993106E+00  0.00000000E+00 -0.23852063E+01  0.20000000E-01
 VARIABLES= X1,X2,Y1,Y2,R
ZONE T="  158" 
SOLUTIONTIME=     0.24322335,STRANDID=   1
  0.50000000E+00  0.20622414E+00  0.00000000E+00 -0.24003987E+01  0.20000000E-01
 VARIABLES= X1,X2,Y1,Y2,R
ZONE T="  159" 
SOLUTIONTIME=     0.24477255,STRANDID=   1
  0.50000000E+00  0.20249369E+00  0.00000000E+00 -0.24155911E+01  0.20000000E-01
 VARIABLES= X1,X2,Y1,Y2,R
ZONE T="  160" 
SOLUTIONTIME=     0.24632174,STRANDID=   1
  0.50000000E+00  0.19873971E+00  0.00000000E+00 -0.24307835E+01  0.20000000E-01
 VARIABLES= X1,X2,Y1,Y2,R
ZONE T="  161" 
SOLUTIONTIME=     0.24787093,STRANDID=   1
  0.50000000E+00  0.19496219E+00  0.00000000E+00 -0.24459759E+01  0.20000000E-01
 VARIABLES= X1,X2,Y1,Y2,R
ZONE T="  162" 
SOLUTIONTIME=     0.24942013,STRANDID=   1
  0.50000000E+00  0.19116113E+00  0.00000000E+00 -0.24611683E+01  0.20000000E-01
 VARIABLES= X1,X2,Y1,Y2,R
ZONE T="  163" 
SOLUTIONTIME=     0.25096932,STRANDID=   1
  0.50000000E+00  0.18733653E+00  0.00000000E+00 -0.24763607E+01  0.20000000E-01
 VARIABLES= X1,X2,Y1,Y2,R
ZONE T="  164" 
SOLUTIONTIME=     0.25251851,STRANDID=   1
  0.50000000E+00  0.18348840E+00  0.00000000E+00 -0.24915531E+01  0.20000000E-01
 VARIABLES= X1,X2,Y1,Y2,R
ZONE T="  165" 
SOLUTIONTIME=     0.25406771,STRANDID=   1
  0.50000000E+00  0.17961674E+00  0.00000000E+00 -0.25067455E+01  0.20000000E-01
 VARIABLES= X1,X2,Y1,Y2,R
ZONE T="  166" 
SOLUTIONTIME=     0.25561690,STRANDID=   1
  0.50000000E+00  0.17572154E+00  0.00000000E+00 -0.25219379E+01  0.20000000E-01
 VARIABLES= X1,X2,Y1,Y2,R
ZONE T="  167" 
SOLUTIONTIME=     0.25716609,STRANDID=   1
  0.50000000E+00  0.17180280E+00  0.00000000E+00 -0.25371303E+01  0.20000000E-01
 VARIABLES= X1,X2,Y1,Y2,R
ZONE T="  168" 
SOLUTIONTIME=     0.25871529,STRANDID=   1
  0.50000000E+00  0.16786053E+00  0.00000000E+00 -0.25523227E+01  0.20000000E-01
 VARIABLES= X1,X2,Y1,Y2,R
ZONE T="  169" 
SOLUTIONTIME=     0.26026448,STRANDID=   1
  0.50000000E+00  0.16389472E+00  0.00000000E+00 -0.25675151E+01  0.20000000E-01
 VARIABLES= X1,X2,Y1,Y2,R
ZONE T="  170" 
SOLUTIONTIME=     0.26181367,STRANDID=   1
  0.50000000E+00  0.15990537E+00  0.00000000E+00 -0.25827075E+01  0.20000000E-01
 VARIABLES= X1,X2,Y1,Y2,R
ZONE T="  171" 
SOLUTIONTIME=     0.26336287,STRANDID=   1
  0.50000000E+00  0.15589249E+00  0.00000000E+00 -0.25978999E+01  0.20000000E-01
 VARIABLES= X1,X2,Y1,Y2,R
ZONE T="  172" 
SOLUTIONTIME=     0.26491206,STRANDID=   1
  0.50000000E+00  0.15185607E+00  0.00000000E+00 -0.26130923E+01  0.20000000E-01
 VARIABLES= X1,X2,Y1,Y2,R
ZONE T="  173" 
SOLUTIONTIME=     0.26646125,STRANDID=   1
  0.50000000E+00  0.14779612E+00  0.00000000E+00 -0.26282847E+01  0.20000000E-01
 VARIABLES= X1,X2,Y1,Y2,R
ZONE T="  174" 
SOLUTIONTIME=     0.26801045,STRANDID=   1
  0.50000000E+00  0.14371263E+00  0.00000000E+00 -0.26434771E+01  0.20000000E-01
 VARIABLES= X1,X2,Y1,Y2,R
ZONE T="  175" 
SOLUTIONTIME=     0.26955964,STRANDID=   1
  0.50000000E+00  0.13960561E+00  0.00000000E+00 -0.26586695E+01  0.20000000E-01
 VARIABLES= X1,X2,Y1,Y2,R
ZONE T="  176" 
SOLUTIONTIME=     0.27110883,STRANDID=   1
  0.50000000E+00  0.13547505E+00  0.00000000E+00 -0.26738619E+01  0.20000000E-01
 VARIABLES= X1,X2,Y1,Y2,R
ZONE T="  177" 
SOLUTIONTIME=     0.27265803,STRANDID=   1
  0.50000000E+00  0.13132095E+00  0.00000000E+00 -0.26890543E+01  0.20000000E-01
 VARIABLES= X1,X2,Y1,Y2,R
ZONE T="  178" 
SOLUTIONTIME=     0.27420722,STRANDID=   1
  0.50000000E+00  0.12714332E+00  0.00000000E+00 -0.27042467E+01  0.20000000E-01
 VARIABLES= X1,X2,Y1,Y2,R
ZONE T="  179" 
SOLUTIONTIME=     0.27575641,STRANDID=   1
  0.50000000E+00  0.12294215E+00  0.00000000E+00 -0.27194391E+01  0.20000000E-01
 VARIABLES= X1,X2,Y1,Y2,R
ZONE T="  180" 
SOLUTIONTIME=     0.27730561,STRANDID=   1
  0.50000000E+00  0.11871744E+00  0.00000000E+00 -0.27346315E+01  0.20000000E-01
 VARIABLES= X1,X2,Y1,Y2,R
ZONE T="  181" 
SOLUTIONTIME=     0.27885480,STRANDID=   1