 VARIABLES= X1,X2,Y1,Y2,R
ZONE T="    1" 
SOLUTIONTIME=     0.00000000,STRANDID=   1
  0.500000000000000       0.499988232020000       0.000000000000000E+000
 -1.519239685283402E-002  2.000000000000000E-002
 VARIABLES= X1,X2,Y1,Y2,R
ZONE T="    2" 
SOLUTIONTIME=     0.00154919,STRANDID=   1
  0.500000000000000       0.499952928080000       0.000000000000000E+000
 -3.038479370566805E-002  2.000000000000000E-002
 VARIABLES= X1,X2,Y1,Y2,R
ZONE T="    3" 
SOLUTIONTIME=     0.00309839,STRANDID=   1
  0.500000000000000       0.499894088180000       0.000000000000000E+000
 -4.557719055850207E-002  2.000000000000000E-002
 VARIABLES= X1,X2,Y1,Y2,R
ZONE T="    4" 
SOLUTIONTIME=     0.00464758,STRANDID=   1
  0.500000000000000       0.499811712320000       0.000000000000000E+000
 -6.076958741133609E-002  2.000000000000000E-002
 VARIABLES= X1,X2,Y1,Y2,R
ZONE T="    5" 
SOLUTIONTIME=     0.00619677,STRANDID=   1
  0.500000000000000       0.499705800500000       0.000000000000000E+000
 -7.596198426417011E-002  2.000000000000000E-002
 VARIABLES= X1,X2,Y1,Y2,R
ZONE T="    6" 
SOLUTIONTIME=     0.00774597,STRANDID=   1
  0.500000000000000       0.499576352720000       0.000000000000000E+000
 -9.115438111700414E-002  2.000000000000000E-002
 VARIABLES= X1,X2,Y1,Y2,R
ZONE T="    7" 
SOLUTIONTIME=     0.00929516,STRANDID=   1
  0.500000000000000       0.499423368980000       0.000000000000000E+000
 -0.106346777969838       2.000000000000000E-002
 VARIABLES= X1,X2,Y1,Y2,R
ZONE T="    8" 
SOLUTIONTIME=     0.01084435,STRANDID=   1
  0.500000000000000       0.499246849280000       0.000000000000000E+000
 -0.121539174822672       2.000000000000000E-002
 VARIABLES= X1,X2,Y1,Y2,R
ZONE T="    9" 
SOLUTIONTIME=     0.01239355,STRANDID=   1
  0.500000000000000       0.499046793620000       0.000000000000000E+000
 -0.136731571675506       2.000000000000000E-002
 VARIABLES= X1,X2,Y1,Y2,R
ZONE T="   10" 
SOLUTIONTIME=     0.01394274,STRANDID=   1
  0.500000000000000       0.498823202000000       0.000000000000000E+000
 -0.151923968528340       2.000000000000000E-002
 VARIABLES= X1,X2,Y1,Y2,R
ZONE T="   11" 
SOLUTIONTIME=     0.01549193,STRANDID=   1
  0.500000000000000       0.498576074420000       0.000000000000000E+000
 -0.167116365381174       2.000000000000000E-002
 VARIABLES= X1,X2,Y1,Y2,R
ZONE T="   12" 
SOLUTIONTIME=     0.01704113,STRANDID=   1
  0.500000000000000       0.498305410880000       0.000000000000000E+000
 -0.182308762234008       2.000000000000000E-002
 VARIABLES= X1,X2,Y1,Y2,R
ZONE T="   13" 
SOLUTIONTIME=     0.01859032,STRANDID=   1
  0.500000000000000       0.498011211380000       0.000000000000000E+000
 -0.197501159086842       2.000000000000000E-002
 VARIABLES= X1,X2,Y1,Y2,R
ZONE T="   14" 
SOLUTIONTIME=     0.02013951,STRANDID=   1
  0.500000000000000       0.497693475920000       0.000000000000000E+000
 -0.212693555939676       2.000000000000000E-002
 VARIABLES= X1,X2,Y1,Y2,R
ZONE T="   15" 
SOLUTIONTIME=     0.02168871,STRANDID=   1
  0.500000000000000       0.497352204500000       0.000000000000000E+000
 -0.227885952792510       2.000000000000000E-002
 VARIABLES= X1,X2,Y1,Y2,R
ZONE T="   16" 
SOLUTIONTIME=     0.02323790,STRANDID=   1
  0.500000000000000       0.496987397120000       0.000000000000000E+000
 -0.243078349645344       2.000000000000000E-002
 VARIABLES= X1,X2,Y1,Y2,R
ZONE T="   17" 
SOLUTIONTIME=     0.02478709,STRANDID=   1
  0.500000000000000       0.496599053780000       0.000000000000000E+000
 -0.258270746498178       2.000000000000000E-002
 VARIABLES= X1,X2,Y1,Y2,R
ZONE T="   18" 
SOLUTIONTIME=     0.02633629,STRANDID=   1
  0.500000000000000       0.496187174480000       0.000000000000000E+000
 -0.273463143351012       2.000000000000000E-002
 VARIABLES= X1,X2,Y1,Y2,R
ZONE T="   19" 
SOLUTIONTIME=     0.02788548,STRANDID=   1
  0.500000000000000       0.495751759220000       0.000000000000000E+000
 -0.288655540203846       2.000000000000000E-002
 VARIABLES= X1,X2,Y1,Y2,R
ZONE T="   20" 
SOLUTIONTIME=     0.02943467,STRANDID=   1
  0.500000000000000       0.495292808000000       0.000000000000000E+000
 -0.303847937056680       2.000000000000000E-002
 VARIABLES= X1,X2,Y1,Y2,R
ZONE T="   21" 
SOLUTIONTIME=     0.03098387,STRANDID=   1
  0.500000000000000       0.494810320820000       0.000000000000000E+000
 -0.319040333909514       2.000000000000000E-002
 VARIABLES= X1,X2,Y1,Y2,R
ZONE T="   22" 
SOLUTIONTIME=     0.03253306,STRANDID=   1
  0.500000000000000       0.494304297680000       0.000000000000000E+000
 -0.334232730762348       2.000000000000000E-002
 VARIABLES= X1,X2,Y1,Y2,R
ZONE T="   23" 
SOLUTIONTIME=     0.03408225,STRANDID=   1
  0.500000000000000       0.493774738580000       0.000000000000000E+000
 -0.349425127615182       2.000000000000000E-002
 VARIABLES= X1,X2,Y1,Y2,R
ZONE T="   24" 
SOLUTIONTIME=     0.03563145,STRANDID=   1
  0.500000000000000       0.493221643520000       0.000000000000000E+000
 -0.364617524468016       2.000000000000000E-002
 VARIABLES= X1,X2,Y1,Y2,R
ZONE T="   25" 
SOLUTIONTIME=     0.03718064,STRANDID=   1
  0.500000000000000       0.492645012500000       0.000000000000000E+000
 -0.379809921320850       2.000000000000000E-002
 VARIABLES= X1,X2,Y1,Y2,R
ZONE T="   26" 
SOLUTIONTIME=     0.03872983,STRANDID=   1
  0.500000000000000       0.492044845520000       0.000000000000000E+000
 -0.395002318173684       2.000000000000000E-002
 VARIABLES= X1,X2,Y1,Y2,R
ZONE T="   27" 
SOLUTIONTIME=     0.04027903,STRANDID=   1
  0.500000000000000       0.491421142580000       0.000000000000000E+000
 -0.410194715026518       2.000000000000000E-002
 VARIABLES= X1,X2,Y1,Y2,R
ZONE T="   28" 
SOLUTIONTIME=     0.04182822,STRANDID=   1
  0.500000000000000       0.490773903680000       0.000000000000000E+000
 -0.425387111879352       2.000000000000000E-002
 VARIABLES= X1,X2,Y1,Y2,R
ZONE T="   29" 
SOLUTIONTIME=     0.04337741,STRANDID=   1
  0.500000000000000       0.490103128820000       0.000000000000000E+000
 -0.440579508732186       2.000000000000000E-002
 VARIABLES= X1,X2,Y1,Y2,R
ZONE T="   30" 
SOLUTIONTIME=     0.04492661,STRANDID=   1
  0.500000000000000       0.489408818000000       0.000000000000000E+000
 -0.455771905585020       2.000000000000000E-002
 VARIABLES= X1,X2,Y1,Y2,R
ZONE T="   31" 
SOLUTIONTIME=     0.04647580,STRANDID=   1
  0.500000000000000       0.488690971220000       0.000000000000000E+000
 -0.470964302437854       2.000000000000000E-002
 VARIABLES= X1,X2,Y1,Y2,R
ZONE T="   32" 
SOLUTIONTIME=     0.04802499,STRANDID=   1
  0.500000000000000       0.487949588480000       0.000000000000000E+000
 -0.486156699290688       2.000000000000000E-002
 VARIABLES= X1,X2,Y1,Y2,R
ZONE T="   33" 
SOLUTIONTIME=     0.04957419,STRANDID=   1
  0.500000000000000       0.487184669780000       0.000000000000000E+000
 -0.501349096143522       2.000000000000000E-002
 VARIABLES= X1,X2,Y1,Y2,R
ZONE T="   34" 
SOLUTIONTIME=     0.05112338,STRANDID=   1
  0.500000000000000       0.486396215120000       0.000000000000000E+000
 -0.516541492996356       2.000000000000000E-002
 VARIABLES= X1,X2,Y1,Y2,R
ZONE T="   35" 
SOLUTIONTIME=     0.05267257,STRANDID=   1
  0.500000000000000       0.485584224500000       0.000000000000000E+000
 -0.531733889849190       2.000000000000000E-002
 VARIABLES= X1,X2,Y1,Y2,R
ZONE T="   36" 
SOLUTIONTIME=     0.05422177,STRANDID=   1
  0.500000000000000       0.484748697920000       0.000000000000000E+000
 -0.546926286702024       2.000000000000000E-002
 VARIABLES= X1,X2,Y1,Y2,R
ZONE T="   37" 
SOLUTIONTIME=     0.05577096,STRANDID=   1
  0.500000000000000       0.483889635380000       0.000000000000000E+000
 -0.562118683554858       2.000000000000000E-002
 VARIABLES= X1,X2,Y1,Y2,R
ZONE T="   38" 
SOLUTIONTIME=     0.05732015,STRANDID=   1
  0.500000000000000       0.483007036880000       0.000000000000000E+000
 -0.577311080407692       2.000000000000000E-002
 VARIABLES= X1,X2,Y1,Y2,R
ZONE T="   39" 
SOLUTIONTIME=     0.05886935,STRANDID=   1
  0.500000000000000       0.482100902420000       0.000000000000000E+000
 -0.592503477260526       2.000000000000000E-002
 VARIABLES= X1,X2,Y1,Y2,R
ZONE T="   40" 
SOLUTIONTIME=     0.06041854,STRANDID=   1
  0.500000000000000       0.481171232000000       0.000000000000000E+000
 -0.607695874113360       2.000000000000000E-002
 VARIABLES= X1,X2,Y1,Y2,R
ZONE T="   41" 
SOLUTIONTIME=     0.06196773,STRANDID=   1
  0.500000000000000       0.480218025620000       0.000000000000000E+000
 -0.622888270966194       2.000000000000000E-002
 VARIABLES= X1,X2,Y1,Y2,R
ZONE T="   42" 
SOLUTIONTIME=     0.06351693,STRANDID=   1
  0.500000000000000       0.479241283280000       0.000000000000000E+000
 -0.638080667819028       2.000000000000000E-002
 VARIABLES= X1,X2,Y1,Y2,R
ZONE T="   43" 
SOLUTIONTIME=     0.06506612,STRANDID=   1
  0.500000000000000       0.478241004980000       0.000000000000000E+000
 -0.653273064671862       2.000000000000000E-002
 VARIABLES= X1,X2,Y1,Y2,R
ZONE T="   44" 
SOLUTIONTIME=     0.06661531,STRANDID=   1
  0.500000000000000       0.477217190720000       0.000000000000000E+000
 -0.668465461524696       2.000000000000000E-002
 VARIABLES= X1,X2,Y1,Y2,R
ZONE T="   45" 
SOLUTIONTIME=     0.06816451,STRANDID=   1
  0.500000000000000       0.476169840500000       0.000000000000000E+000
 -0.683657858377530       2.000000000000000E-002
 VARIABLES= X1,X2,Y1,Y2,R
ZONE T="   46" 
SOLUTIONTIME=     0.06971370,STRANDID=   1
  0.500000000000000       0.475098954320000       0.000000000000000E+000
 -0.698850255230364       2.000000000000000E-002
 VARIABLES= X1,X2,Y1,Y2,R
ZONE T="   47" 
SOLUTIONTIME=     0.07126289,STRANDID=   1
  0.500000000000000       0.474004532180000       0.000000000000000E+000
 -0.714042652083198       2.000000000000000E-002
 VARIABLES= X1,X2,Y1,Y2,R
ZONE T="   48" 
SOLUTIONTIME=     0.07281209,STRANDID=   1
  0.500000000000000       0.472886574080000       0.000000000000000E+000
 -0.729235048936032       2.000000000000000E-002
 VARIABLES= X1,X2,Y1,Y2,R
ZONE T="   49" 
SOLUTIONTIME=     0.07436128,STRANDID=   1
  0.500000000000000       0.471745080020000       0.000000000000000E+000
 -0.744427445788865       2.000000000000000E-002
 VARIABLES= X1,X2,Y1,Y2,R
ZONE T="   50" 
SOLUTIONTIME=     0.07591047,STRANDID=   1
  0.500000000000000       0.470580050000000       0.000000000000000E+000
 -0.759619842641700       2.000000000000000E-002
 VARIABLES= X1,X2,Y1,Y2,R
ZONE T="   51" 
SOLUTIONTIME=     0.07745967,STRANDID=   1
  0.500000000000000       0.469391484020000       0.000000000000000E+000
 -0.774812239494533       2.000000000000000E-002
 VARIABLES= X1,X2,Y1,Y2,R
ZONE T="   52" 
SOLUTIONTIME=     0.07900886,STRANDID=   1
  0.500000000000000       0.468179382080000       0.000000000000000E+000
 -0.790004636347368       2.000000000000000E-002
 VARIABLES= X1,X2,Y1,Y2,R
ZONE T="   53" 
SOLUTIONTIME=     0.08055805,STRANDID=   1
  0.500000000000000       0.466943744180000       0.000000000000000E+000
 -0.805197033200201       2.000000000000000E-002
 VARIABLES= X1,X2,Y1,Y2,R
ZONE T="   54" 
SOLUTIONTIME=     0.08210725,STRANDID=   1
  0.500000000000000       0.465684570320000       0.000000000000000E+000
 -0.820389430053036       2.000000000000000E-002
 VARIABLES= X1,X2,Y1,Y2,R
ZONE T="   55" 
SOLUTIONTIME=     0.08365644,STRANDID=   1
  0.500000000000000       0.464401860500000       0.000000000000000E+000
 -0.835581826905869       2.000000000000000E-002
 VARIABLES= X1,X2,Y1,Y2,R
ZONE T="   56" 
SOLUTIONTIME=     0.08520563,STRANDID=   1
  0.500000000000000       0.463095614720000       0.000000000000000E+000
 -0.850774223758704       2.000000000000000E-002
 VARIABLES= X1,X2,Y1,Y2,R
ZONE T="   57" 
SOLUTIONTIME=     0.08675483,STRANDID=   1
  0.500000000000000       0.461765832980000       0.000000000000000E+000
 -0.865966620611538       2.000000000000000E-002
 VARIABLES= X1,X2,Y1,Y2,R
ZONE T="   58" 
SOLUTIONTIME=     0.08830402,STRANDID=   1
  0.500000000000000       0.460412515280000       0.000000000000000E+000
 -0.881159017464372       2.000000000000000E-002
 VARIABLES= X1,X2,Y1,Y2,R
ZONE T="   59" 
SOLUTIONTIME=     0.08985321,STRANDID=   1
  0.500000000000000       0.459035661620000       0.000000000000000E+000
 -0.896351414317206       2.000000000000000E-002
 VARIABLES= X1,X2,Y1,Y2,R
ZONE T="   60" 
SOLUTIONTIME=     0.09140241,STRANDID=   1
  0.500000000000000       0.457635272000000       0.000000000000000E+000
 -0.911543811170040       2.000000000000000E-002
 VARIABLES= X1,X2,Y1,Y2,R
ZONE T="   61" 
SOLUTIONTIME=     0.09295160,STRANDID=   1
  0.500000000000000       0.456211346420000       0.000000000000000E+000
 -0.926736208022874       2.000000000000000E-002
 VARIABLES= X1,X2,Y1,Y2,R
ZONE T="   62" 
SOLUTIONTIME=     0.09450079,STRANDID=   1
  0.500000000000000       0.454763884880000       0.000000000000000E+000
 -0.941928604875709       2.000000000000000E-002
 VARIABLES= X1,X2,Y1,Y2,R
ZONE T="   63" 
SOLUTIONTIME=     0.09604999,STRANDID=   1
  0.500000000000000       0.453292887380000       0.000000000000000E+000
 -0.957121001728542       2.000000000000000E-002
 VARIABLES= X1,X2,Y1,Y2,R
ZONE T="   64" 
SOLUTIONTIME=     0.09759918,STRANDID=   1
  0.500000000000000       0.451798353920000       0.000000000000000E+000
 -0.972313398581376       2.000000000000000E-002
 VARIABLES= X1,X2,Y1,Y2,R
ZONE T="   65" 
SOLUTIONTIME=     0.09914837,STRANDID=   1
  0.500000000000000       0.450280284500000       0.000000000000000E+000
 -0.987505795434210       2.000000000000000E-002
 VARIABLES= X1,X2,Y1,Y2,R
ZONE T="   66" 
SOLUTIONTIME=     0.10069757,STRANDID=   1
  0.500000000000000       0.448738679120000       0.000000000000000E+000
  -1.00269819228704       2.000000000000000E-002
 VARIABLES= X1,X2,Y1,Y2,R
ZONE T="   67" 
SOLUTIONTIME=     0.10224676,STRANDID=   1
  0.500000000000000       0.447173537780000       0.000000000000000E+000
  -1.01789058913988       2.000000000000000E-002
 VARIABLES= X1,X2,Y1,Y2,R
ZONE T="   68" 
SOLUTIONTIME=     0.10379595,STRANDID=   1
  0.500000000000000       0.445584860480000       0.000000000000000E+000
  -1.03308298599271       2.000000000000000E-002
 VARIABLES= X1,X2,Y1,Y2,R
ZONE T="   69" 
SOLUTIONTIME=     0.10534515,STRANDID=   1
  0.500000000000000       0.443972647220000       0.000000000000000E+000
  -1.04827538284555       2.000000000000000E-002
 VARIABLES= X1,X2,Y1,Y2,R
ZONE T="   70" 
SOLUTIONTIME=     0.10689434,STRANDID=   1
  0.500000000000000       0.442336898000000       0.000000000000000E+000
  -1.06346777969838       2.000000000000000E-002
 VARIABLES= X1,X2,Y1,Y2,R
ZONE T="   71" 
SOLUTIONTIME=     0.10844353,STRANDID=   1
  0.500000000000000       0.440677612820000       0.000000000000000E+000
  -1.07866017655121       2.000000000000000E-002
 VARIABLES= X1,X2,Y1,Y2,R
ZONE T="   72" 
SOLUTIONTIME=     0.10999273,STRANDID=   1
  0.500000000000000       0.438994791680000       0.000000000000000E+000
  -1.09385257340405       2.000000000000000E-002
 VARIABLES= X1,X2,Y1,Y2,R
ZONE T="   73" 
SOLUTIONTIME=     0.11154192,STRANDID=   1
  0.500000000000000       0.437288434580000       0.000000000000000E+000
  -1.10904497025688       2.000000000000000E-002
 VARIABLES= X1,X2,Y1,Y2,R
ZONE T="   74" 
SOLUTIONTIME=     0.11309111,STRANDID=   1
  0.500000000000000       0.435558541520000       0.000000000000000E+000
  -1.12423736710972       2.000000000000000E-002
 VARIABLES= X1,X2,Y1,Y2,R
ZONE T="   75" 
SOLUTIONTIME=     0.11464031,STRANDID=   1
  0.500000000000000       0.433805112500000       0.000000000000000E+000
  -1.13942976396255       2.000000000000000E-002
 VARIABLES= X1,X2,Y1,Y2,R
ZONE T="   76" 
SOLUTIONTIME=     0.11618950,STRANDID=   1
  0.500000000000000       0.432028147520000       0.000000000000000E+000
  -1.15462216081538       2.000000000000000E-002
 VARIABLES= X1,X2,Y1,Y2,R
ZONE T="   77" 
SOLUTIONTIME=     0.11773869,STRANDID=   1
  0.500000000000000       0.430227646580000       0.000000000000000E+000
  -1.16981455766822       2.000000000000000E-002
 VARIABLES= X1,X2,Y1,Y2,R
ZONE T="   78" 
SOLUTIONTIME=     0.11928789,STRANDID=   1
  0.500000000000000       0.428403609680000       0.000000000000000E+000
  -1.18500695452105       2.000000000000000E-002
 VARIABLES= X1,X2,Y1,Y2,R
ZONE T="   79" 
SOLUTIONTIME=     0.12083708,STRANDID=   1
  0.500000000000000       0.426556036820000       0.000000000000000E+000
  -1.20019935137389       2.000000000000000E-002
 VARIABLES= X1,X2,Y1,Y2,R
ZONE T="   80" 
SOLUTIONTIME=     0.12238627,STRANDID=   1
  0.500000000000000       0.424684928000000       0.000000000000000E+000
  -1.21539174822672       2.000000000000000E-002
 VARIABLES= X1,X2,Y1,Y2,R
ZONE T="   81" 
SOLUTIONTIME=     0.12393547,STRANDID=   1
  0.500000000000000       0.422790283220000       0.000000000000000E+000
  -1.23058414507955       2.000000000000000E-002
 VARIABLES= X1,X2,Y1,Y2,R
ZONE T="   82" 
SOLUTIONTIME=     0.12548466,STRANDID=   1
  0.500000000000000       0.420872102480000       0.000000000000000E+000
  -1.24577654193239       2.000000000000000E-002
 VARIABLES= X1,X2,Y1,Y2,R
ZONE T="   83" 
SOLUTIONTIME=     0.12703385,STRANDID=   1
  0.500000000000000       0.418930385780000       0.000000000000000E+000
  -1.26096893878522       2.000000000000000E-002
 VARIABLES= X1,X2,Y1,Y2,R
ZONE T="   84" 
SOLUTIONTIME=     0.12858305,STRANDID=   1
  0.500000000000000       0.416965133120000       0.000000000000000E+000
  -1.27616133563806       2.000000000000000E-002
 VARIABLES= X1,X2,Y1,Y2,R
ZONE T="   85" 
SOLUTIONTIME=     0.13013224,STRANDID=   1
  0.500000000000000       0.414976344500000       0.000000000000000E+000
  -1.29135373249089       2.000000000000000E-002
 VARIABLES= X1,X2,Y1,Y2,R
ZONE T="   86" 
SOLUTIONTIME=     0.13168143,STRANDID=   1
  0.500000000000000       0.412964019920000       0.000000000000000E+000
  -1.30654612934372       2.000000000000000E-002
 VARIABLES= X1,X2,Y1,Y2,R
ZONE T="   87" 
SOLUTIONTIME=     0.13323063,STRANDID=   1
  0.500000000000000       0.410928159380000       0.000000000000000E+000
  -1.32173852619656       2.000000000000000E-002
 VARIABLES= X1,X2,Y1,Y2,R
ZONE T="   88" 
SOLUTIONTIME=     0.13477982,STRANDID=   1
  0.500000000000000       0.408868762880000       0.000000000000000E+000
  -1.33693092304939       2.000000000000000E-002
 VARIABLES= X1,X2,Y1,Y2,R
ZONE T="   89" 
SOLUTIONTIME=     0.13632901,STRANDID=   1
  0.500000000000000       0.406785830420000       0.000000000000000E+000
  -1.35212331990223       2.000000000000000E-002
 VARIABLES= X1,X2,Y1,Y2,R
ZONE T="   90" 
SOLUTIONTIME=     0.13787821,STRANDID=   1
  0.500000000000000       0.404679362000000       0.000000000000000E+000
  -1.36731571675506       2.000000000000000E-002
 VARIABLES= X1,X2,Y1,Y2,R
ZONE T="   91" 
SOLUTIONTIME=     0.13942740,STRANDID=   1
  0.500000000000000       0.402549357620000       0.000000000000000E+000
  -1.38250811360789       2.000000000000000E-002
 VARIABLES= X1,X2,Y1,Y2,R
ZONE T="   92" 
SOLUTIONTIME=     0.14097659,STRANDID=   1
  0.500000000000000       0.400395817280000       0.000000000000000E+000
  -1.39770051046073       2.000000000000000E-002
 VARIABLES= X1,X2,Y1,Y2,R
ZONE T="   93" 
SOLUTIONTIME=     0.14252579,STRANDID=   1
  0.500000000000000       0.398218740980000       0.000000000000000E+000
  -1.41289290731356       2.000000000000000E-002
 VARIABLES= X1,X2,Y1,Y2,R
ZONE T="   94" 
SOLUTIONTIME=     0.14407498,STRANDID=   1
  0.500000000000000       0.396018128720000       0.000000000000000E+000
  -1.42808530416640       2.000000000000000E-002
 VARIABLES= X1,X2,Y1,Y2,R
ZONE T="   95" 
SOLUTIONTIME=     0.14562417,STRANDID=   1
  0.500000000000000       0.393793980500000       0.000000000000000E+000
  -1.44327770101923       2.000000000000000E-002
 VARIABLES= X1,X2,Y1,Y2,R
ZONE T="   96" 
SOLUTIONTIME=     0.14717337,STRANDID=   1
  0.500000000000000       0.391546296320000       0.000000000000000E+000
  -1.45847009787206       2.000000000000000E-002
 VARIABLES= X1,X2,Y1,Y2,R
ZONE T="   97" 
SOLUTIONTIME=     0.14872256,STRANDID=   1
  0.500000000000000       0.389275076180000       0.000000000000000E+000
  -1.47366249472490       2.000000000000000E-002
 VARIABLES= X1,X2,Y1,Y2,R
ZONE T="   98" 
SOLUTIONTIME=     0.15027175,STRANDID=   1
  0.500000000000000       0.386980320080000       0.000000000000000E+000
  -1.48885489157773       2.000000000000000E-002
 VARIABLES= X1,X2,Y1,Y2,R
ZONE T="   99" 
SOLUTIONTIME=     0.15182095,STRANDID=   1
  0.500000000000000       0.384662028020000       0.000000000000000E+000
  -1.50404728843057       2.000000000000000E-002
 VARIABLES= X1,X2,Y1,Y2,R
ZONE T="  100" 
SOLUTIONTIME=     0.15337014,STRANDID=   1
  0.500000000000000       0.382320200000000       0.000000000000000E+000
  -1.51923968528340       2.000000000000000E-002
 VARIABLES= X1,X2,Y1,Y2,R
ZONE T="  101" 
SOLUTIONTIME=     0.15491933,STRANDID=   1
  0.500000000000000       0.379954836020000       0.000000000000000E+000
  -1.53443208213623       2.000000000000000E-002
 VARIABLES= X1,X2,Y1,Y2,R
ZONE T="  102" 
SOLUTIONTIME=     0.15646853,STRANDID=   1
  0.500000000000000       0.377565936080000       0.000000000000000E+000
  -1.54962447898907       2.000000000000000E-002
 VARIABLES= X1,X2,Y1,Y2,R
ZONE T="  103" 
SOLUTIONTIME=     0.15801772,STRANDID=   1
  0.500000000000000       0.375153500180000       0.000000000000000E+000
  -1.56481687584190       2.000000000000000E-002
 VARIABLES= X1,X2,Y1,Y2,R
ZONE T="  104" 
SOLUTIONTIME=     0.15956691,STRANDID=   1
  0.500000000000000       0.372717528320000       0.000000000000000E+000
  -1.58000927269474       2.000000000000000E-002
 VARIABLES= X1,X2,Y1,Y2,R
ZONE T="  105" 
SOLUTIONTIME=     0.16111611,STRANDID=   1
  0.500000000000000       0.370258020500000       0.000000000000000E+000
  -1.59520166954757       2.000000000000000E-002
 VARIABLES= X1,X2,Y1,Y2,R
ZONE T="  106" 
SOLUTIONTIME=     0.16266530,STRANDID=   1
  0.500000000000000       0.367774976720000       0.000000000000000E+000
  -1.61039406640040       2.000000000000000E-002
 VARIABLES= X1,X2,Y1,Y2,R
ZONE T="  107" 
SOLUTIONTIME=     0.16421449,STRANDID=   1
  0.500000000000000       0.365268396980000       0.000000000000000E+000
  -1.62558646325324       2.000000000000000E-002
 VARIABLES= X1,X2,Y1,Y2,R
ZONE T="  108" 
SOLUTIONTIME=     0.16576369,STRANDID=   1
  0.500000000000000       0.362738281280000       0.000000000000000E+000
  -1.64077886010607       2.000000000000000E-002
 VARIABLES= X1,X2,Y1,Y2,R
ZONE T="  109" 
SOLUTIONTIME=     0.16731288,STRANDID=   1
  0.500000000000000       0.360184629620000       0.000000000000000E+000
  -1.65597125695891       2.000000000000000E-002
 VARIABLES= X1,X2,Y1,Y2,R
ZONE T="  110" 
SOLUTIONTIME=     0.16886207,STRANDID=   1
  0.500000000000000       0.357607442000000       0.000000000000000E+000
  -1.67116365381174       2.000000000000000E-002
 VARIABLES= X1,X2,Y1,Y2,R
ZONE T="  111" 
SOLUTIONTIME=     0.17041127,STRANDID=   1
  0.500000000000000       0.355006718420000       0.000000000000000E+000
  -1.68635605066457       2.000000000000000E-002
 VARIABLES= X1,X2,Y1,Y2,R
ZONE T="  112" 
SOLUTIONTIME=     0.17196046,STRANDID=   1
  0.500000000000000       0.352382458880000       0.000000000000000E+000
  -1.70154844751741       2.000000000000000E-002
 VARIABLES= X1,X2,Y1,Y2,R
ZONE T="  113" 
SOLUTIONTIME=     0.17350965,STRANDID=   1
  0.500000000000000       0.349734663380000       0.000000000000000E+000
  -1.71674084437024       2.000000000000000E-002
 VARIABLES= X1,X2,Y1,Y2,R
ZONE T="  114" 
SOLUTIONTIME=     0.17505885,STRANDID=   1
  0.500000000000000       0.347063331920000       0.000000000000000E+000
  -1.73193324122308       2.000000000000000E-002
 VARIABLES= X1,X2,Y1,Y2,R
ZONE T="  115" 
SOLUTIONTIME=     0.17660804,STRANDID=   1
  0.500000000000000       0.344368464500000       0.000000000000000E+000
  -1.74712563807591       2.000000000000000E-002
 VARIABLES= X1,X2,Y1,Y2,R
ZONE T="  116" 
SOLUTIONTIME=     0.17815723,STRANDID=   1
  0.500000000000000       0.341650061120000       0.000000000000000E+000
  -1.76231803492874       2.000000000000000E-002
 VARIABLES= X1,X2,Y1,Y2,R
ZONE T="  117" 
SOLUTIONTIME=     0.17970643,STRANDID=   1
  0.500000000000000       0.338908121780000       0.000000000000000E+000
  -1.77751043178158       2.000000000000000E-002
 VARIABLES= X1,X2,Y1,Y2,R
ZONE T="  118" 
SOLUTIONTIME=     0.18125562,STRANDID=   1
  0.500000000000000       0.336142646480000       0.000000000000000E+000
  -1.79270282863441       2.000000000000000E-002
 VARIABLES= X1,X2,Y1,Y2,R
ZONE T="  119" 
SOLUTIONTIME=     0.18280481,STRANDID=   1
  0.500000000000000       0.333353635220000       0.000000000000000E+000
  -1.80789522548725       2.000000000000000E-002
 VARIABLES= X1,X2,Y1,Y2,R
ZONE T="  120" 
SOLUTIONTIME=     0.18435401,STRANDID=   1
  0.500000000000000       0.330541088000000       0.000000000000000E+000
  -1.82308762234008       2.000000000000000E-002
 VARIABLES= X1,X2,Y1,Y2,R
ZONE T="  121" 
SOLUTIONTIME=     0.18590320,STRANDID=   1
  0.500000000000000       0.327705004820000       0.000000000000000E+000
  -1.83828001919291       2.000000000000000E-002
 VARIABLES= X1,X2,Y1,Y2,R
ZONE T="  122" 
SOLUTIONTIME=     0.18745239,STRANDID=   1
  0.500000000000000       0.324845385680000       0.000000000000000E+000
  -1.85347241604575       2.000000000000000E-002
 VARIABLES= X1,X2,Y1,Y2,R
ZONE T="  123" 
SOLUTIONTIME=     0.18900159,STRANDID=   1
  0.500000000000000       0.321962230580000       0.000000000000000E+000
  -1.86866481289858       2.000000000000000E-002
 VARIABLES= X1,X2,Y1,Y2,R
ZONE T="  124" 
SOLUTIONTIME=     0.19055078,STRANDID=   1
  0.500000000000000       0.319055539520000       0.000000000000000E+000
  -1.88385720975142       2.000000000000000E-002
 VARIABLES= X1,X2,Y1,Y2,R
ZONE T="  125" 
SOLUTIONTIME=     0.19209997,STRANDID=   1
  0.500000000000000       0.316125312500000       0.000000000000000E+000
  -1.89904960660425       2.000000000000000E-002
 VARIABLES= X1,X2,Y1,Y2,R
ZONE T="  126" 
SOLUTIONTIME=     0.19364917,STRANDID=   1
  0.500000000000000       0.313171549520000       0.000000000000000E+000
  -1.91424200345708       2.000000000000000E-002
 VARIABLES= X1,X2,Y1,Y2,R
ZONE T="  127" 
SOLUTIONTIME=     0.19519836,STRANDID=   1
  0.500000000000000       0.310194250580000       0.000000000000000E+000
  -1.92943440030992       2.000000000000000E-002
 VARIABLES= X1,X2,Y1,Y2,R
ZONE T="  128" 
SOLUTIONTIME=     0.19674755,STRANDID=   1
  0.500000000000000       0.307193415680000       0.000000000000000E+000
  -1.94462679716275       2.000000000000000E-002
 VARIABLES= X1,X2,Y1,Y2,R
ZONE T="  129" 
SOLUTIONTIME=     0.19829675,STRANDID=   1
  0.500000000000000       0.304169044820000       0.000000000000000E+000
  -1.95981919401559       2.000000000000000E-002
 VARIABLES= X1,X2,Y1,Y2,R
ZONE T="  130" 
SOLUTIONTIME=     0.19984594,STRANDID=   1
  0.500000000000000       0.301121138000000       0.000000000000000E+000
  -1.97501159086842       2.000000000000000E-002
 VARIABLES= X1,X2,Y1,Y2,R
ZONE T="  131" 
SOLUTIONTIME=     0.20139513,STRANDID=   1
  0.500000000000000       0.298049695220000       0.000000000000000E+000
  -1.99020398772125       2.000000000000000E-002
 VARIABLES= X1,X2,Y1,Y2,R
ZONE T="  132" 
SOLUTIONTIME=     0.20294433,STRANDID=   1
  0.500000000000000       0.294954716480000       0.000000000000000E+000
  -2.00539638457409       2.000000000000000E-002
 VARIABLES= X1,X2,Y1,Y2,R
ZONE T="  133" 
SOLUTIONTIME=     0.20449352,STRANDID=   1
  0.500000000000000       0.291836201780000       0.000000000000000E+000
  -2.02058878142692       2.000000000000000E-002
 VARIABLES= X1,X2,Y1,Y2,R
ZONE T="  134" 
SOLUTIONTIME=     0.20604271,STRANDID=   1
  0.500000000000000       0.288694151120000       0.000000000000000E+000
  -2.03578117827976       2.000000000000000E-002
 VARIABLES= X1,X2,Y1,Y2,R
ZONE T="  135" 
SOLUTIONTIME=     0.20759191,STRANDID=   1
  0.500000000000000       0.285528564500000       0.000000000000000E+000
  -2.05097357513259       2.000000000000000E-002
 VARIABLES= X1,X2,Y1,Y2,R
ZONE T="  136" 
SOLUTIONTIME=     0.20914110,STRANDID=   1
  0.500000000000000       0.282339441919999       0.000000000000000E+000
  -2.06616597198542       2.000000000000000E-002
 VARIABLES= X1,X2,Y1,Y2,R
ZONE T="  137" 
SOLUTIONTIME=     0.21069029,STRANDID=   1
  0.500000000000000       0.279126783380000       0.000000000000000E+000
  -2.08135836883826       2.000000000000000E-002
 VARIABLES= X1,X2,Y1,Y2,R
ZONE T="  138" 
SOLUTIONTIME=     0.21223949,STRANDID=   1
  0.500000000000000       0.275890588880000       0.000000000000000E+000
  -2.09655076569109       2.000000000000000E-002
 VARIABLES= X1,X2,Y1,Y2,R
ZONE T="  139" 
SOLUTIONTIME=     0.21378868,STRANDID=   1
  0.500000000000000       0.272630858420000       0.000000000000000E+000
  -2.11174316254393       2.000000000000000E-002
 VARIABLES= X1,X2,Y1,Y2,R
ZONE T="  140" 
SOLUTIONTIME=     0.21533787,STRANDID=   1
  0.500000000000000       0.269347592000000       0.000000000000000E+000
  -2.12693555939676       2.000000000000000E-002
 VARIABLES= X1,X2,Y1,Y2,R
ZONE T="  141" 
SOLUTIONTIME=     0.21688707,STRANDID=   1
  0.500000000000000       0.266040789620000       0.000000000000000E+000
  -2.14212795624959       2.000000000000000E-002
 VARIABLES= X1,X2,Y1,Y2,R
ZONE T="  142" 
SOLUTIONTIME=     0.21843626,STRANDID=   1
  0.500000000000000       0.262710451280000       0.000000000000000E+000
  -2.15732035310243       2.000000000000000E-002
 VARIABLES= X1,X2,Y1,Y2,R
ZONE T="  143" 
SOLUTIONTIME=     0.21998545,STRANDID=   1
  0.500000000000000       0.259356576980000       0.000000000000000E+000
  -2.17251274995526       2.000000000000000E-002
 VARIABLES= X1,X2,Y1,Y2,R
ZONE T="  144" 
SOLUTIONTIME=     0.22153465,STRANDID=   1
  0.500000000000000       0.255979166720000       0.000000000000000E+000
  -2.18770514680810       2.000000000000000E-002
 VARIABLES= X1,X2,Y1,Y2,R
ZONE T="  145" 
SOLUTIONTIME=     0.22308384,STRANDID=   1
  0.500000000000000       0.252578220500000       0.000000000000000E+000