 VARIABLES= X1,X2,Y1,Y2,R,ID,RK
ZONE T="    2" 
SOLUTIONTIME=     0.00154919,STRANDID=   1
  0.50000000E+00  0.49992939E+00  0.00000000E+00 -0.30384794E-01  0.20000000E-01    1    0
 VARIABLES= X1,X2,Y1,Y2,R,ID,RK
ZONE T="    4" 
SOLUTIONTIME=     0.00464758,STRANDID=   1
  0.50000000E+00  0.49976464E+00  0.00000000E+00 -0.60769587E-01  0.20000000E-01    1    0
 VARIABLES= X1,X2,Y1,Y2,R,ID,RK
ZONE T="    6" 
SOLUTIONTIME=     0.00774597,STRANDID=   1
  0.50000000E+00  0.49950574E+00  0.00000000E+00 -0.91154381E-01  0.20000000E-01    1    0
 VARIABLES= X1,X2,Y1,Y2,R,ID,RK
ZONE T="    8" 
SOLUTIONTIME=     0.01084435,STRANDID=   1
  0.50000000E+00  0.49915271E+00  0.00000000E+00 -0.12153917E+00  0.20000000E-01    1    0
 VARIABLES= X1,X2,Y1,Y2,R,ID,RK
ZONE T="   10" 
SOLUTIONTIME=     0.01394274,STRANDID=   1
  0.50000000E+00  0.49870552E+00  0.00000000E+00 -0.15192397E+00  0.20000000E-01    1    0
 VARIABLES= X1,X2,Y1,Y2,R,ID,RK
ZONE T="   12" 
SOLUTIONTIME=     0.01704113,STRANDID=   1
  0.50000000E+00  0.49816420E+00  0.00000000E+00 -0.18230876E+00  0.20000000E-01    1    0
 VARIABLES= X1,X2,Y1,Y2,R,ID,RK
ZONE T="   14" 
SOLUTIONTIME=     0.02013951,STRANDID=   1
  0.50000000E+00  0.49752872E+00  0.00000000E+00 -0.21269356E+00  0.20000000E-01    1    0
 VARIABLES= X1,X2,Y1,Y2,R,ID,RK
ZONE T="   16" 
SOLUTIONTIME=     0.02323790,STRANDID=   1
  0.50000000E+00  0.49679911E+00  0.00000000E+00 -0.24307835E+00  0.20000000E-01    1    0
 VARIABLES= X1,X2,Y1,Y2,R,ID,RK
ZONE T="   18" 
SOLUTIONTIME=     0.02633629,STRANDID=   1
  0.50000000E+00  0.49597535E+00  0.00000000E+00 -0.27346314E+00  0.20000000E-01    1    0
 VARIABLES= X1,X2,Y1,Y2,R,ID,RK
ZONE T="   20" 
SOLUTIONTIME=     0.02943467,STRANDID=   1
  0.50000000E+00  0.49505745E+00  0.00000000E+00 -0.30384794E+00  0.20000000E-01    1    0
 VARIABLES= X1,X2,Y1,Y2,R,ID,RK
ZONE T="   22" 
SOLUTIONTIME=     0.03253306,STRANDID=   1
  0.50000000E+00  0.49404540E+00  0.00000000E+00 -0.33423273E+00  0.20000000E-01    1    0
 VARIABLES= X1,X2,Y1,Y2,R,ID,RK
ZONE T="   24" 
SOLUTIONTIME=     0.03563145,STRANDID=   1
  0.50000000E+00  0.49293921E+00  0.00000000E+00 -0.36461752E+00  0.20000000E-01    1    0
 VARIABLES= X1,X2,Y1,Y2,R,ID,RK
ZONE T="   26" 
SOLUTIONTIME=     0.03872983,STRANDID=   1
  0.50000000E+00  0.49173888E+00  0.00000000E+00 -0.39500232E+00  0.20000000E-01    1    0
 VARIABLES= X1,X2,Y1,Y2,R,ID,RK
ZONE T="   28" 
SOLUTIONTIME=     0.04182822,STRANDID=   1
  0.50000000E+00  0.49044440E+00  0.00000000E+00 -0.42538711E+00  0.20000000E-01    1    0
 VARIABLES= X1,X2,Y1,Y2,R,ID,RK
ZONE T="   30" 
SOLUTIONTIME=     0.04492661,STRANDID=   1
  0.50000000E+00  0.48905578E+00  0.00000000E+00 -0.45577191E+00  0.20000000E-01    1    0
 VARIABLES= X1,X2,Y1,Y2,R,ID,RK
ZONE T="   32" 
SOLUTIONTIME=     0.04802499,STRANDID=   1
  0.50000000E+00  0.48757301E+00  0.00000000E+00 -0.48615670E+00  0.20000000E-01    1    0
 VARIABLES= X1,X2,Y1,Y2,R,ID,RK
ZONE T="   34" 
SOLUTIONTIME=     0.05112338,STRANDID=   1
  0.50000000E+00  0.48599610E+00  0.00000000E+00 -0.51654149E+00  0.20000000E-01    1    0
 VARIABLES= X1,X2,Y1,Y2,R,ID,RK
ZONE T="   36" 
SOLUTIONTIME=     0.05422177,STRANDID=   1
  0.50000000E+00  0.48432505E+00  0.00000000E+00 -0.54692629E+00  0.20000000E-01    1    0
 VARIABLES= X1,X2,Y1,Y2,R,ID,RK
ZONE T="   38" 
SOLUTIONTIME=     0.05732015,STRANDID=   1
  0.50000000E+00  0.48255985E+00  0.00000000E+00 -0.57731108E+00  0.20000000E-01    1    0
 VARIABLES= X1,X2,Y1,Y2,R,ID,RK
ZONE T="   40" 
SOLUTIONTIME=     0.06041854,STRANDID=   1
  0.50000000E+00  0.48070051E+00  0.00000000E+00 -0.60769587E+00  0.20000000E-01    1    0
 VARIABLES= X1,X2,Y1,Y2,R,ID,RK
ZONE T="   42" 
SOLUTIONTIME=     0.06351693,STRANDID=   1
  0.50000000E+00  0.47874703E+00  0.00000000E+00 -0.63808067E+00  0.20000000E-01    1    0
 VARIABLES= X1,X2,Y1,Y2,R,ID,RK
ZONE T="   44" 
SOLUTIONTIME=     0.06661531,STRANDID=   1
  0.50000000E+00  0.47669940E+00  0.00000000E+00 -0.66846546E+00  0.20000000E-01    1    0
 VARIABLES= X1,X2,Y1,Y2,R,ID,RK
ZONE T="   46" 
SOLUTIONTIME=     0.06971370,STRANDID=   1
  0.50000000E+00  0.47455763E+00  0.00000000E+00 -0.69885026E+00  0.20000000E-01    1    0
 VARIABLES= X1,X2,Y1,Y2,R,ID,RK
ZONE T="   48" 
SOLUTIONTIME=     0.07281209,STRANDID=   1
  0.50000000E+00  0.47232171E+00  0.00000000E+00 -0.72923505E+00  0.20000000E-01    1    0
 VARIABLES= X1,X2,Y1,Y2,R,ID,RK
ZONE T="   50" 
SOLUTIONTIME=     0.07591047,STRANDID=   1
  0.50000000E+00  0.46999165E+00  0.00000000E+00 -0.75961984E+00  0.20000000E-01    1    0
 VARIABLES= X1,X2,Y1,Y2,R,ID,RK
ZONE T="   52" 
SOLUTIONTIME=     0.07900886,STRANDID=   1
  0.50000000E+00  0.46756745E+00  0.00000000E+00 -0.79000464E+00  0.20000000E-01    1    0
 VARIABLES= X1,X2,Y1,Y2,R,ID,RK
ZONE T="   54" 
SOLUTIONTIME=     0.08210725,STRANDID=   1
  0.50000000E+00  0.46504910E+00  0.00000000E+00 -0.82038943E+00  0.20000000E-01    1    0
 VARIABLES= X1,X2,Y1,Y2,R,ID,RK
ZONE T="   56" 
SOLUTIONTIME=     0.08520563,STRANDID=   1
  0.50000000E+00  0.46243661E+00  0.00000000E+00 -0.85077422E+00  0.20000000E-01    1    0
 VARIABLES= X1,X2,Y1,Y2,R,ID,RK
ZONE T="   58" 
SOLUTIONTIME=     0.08830402,STRANDID=   1
  0.50000000E+00  0.45972997E+00  0.00000000E+00 -0.88115902E+00  0.20000000E-01    1    0
 VARIABLES= X1,X2,Y1,Y2,R,ID,RK
ZONE T="   60" 
SOLUTIONTIME=     0.09140241,STRANDID=   1
  0.50000000E+00  0.45692919E+00  0.00000000E+00 -0.91154381E+00  0.20000000E-01    1    0
 VARIABLES= X1,X2,Y1,Y2,R,ID,RK
ZONE T="   62" 
SOLUTIONTIME=     0.09450079,STRANDID=   1
  0.50000000E+00  0.45403427E+00  0.00000000E+00 -0.94192860E+00  0.20000000E-01    1    0
 VARIABLES= X1,X2,Y1,Y2,R,ID,RK
ZONE T="   64" 
SOLUTIONTIME=     0.09759918,STRANDID=   1
  0.50000000E+00  0.45104520E+00  0.00000000E+00 -0.97231340E+00  0.20000000E-01    1    0
 VARIABLES= X1,X2,Y1,Y2,R,ID,RK
ZONE T="   66" 
SOLUTIONTIME=     0.10069757,STRANDID=   1
  0.50000000E+00  0.44796199E+00  0.00000000E+00 -0.10026982E+01  0.20000000E-01    1    0
 VARIABLES= X1,X2,Y1,Y2,R,ID,RK
ZONE T="   68" 
SOLUTIONTIME=     0.10379595,STRANDID=   1
  0.50000000E+00  0.44478464E+00  0.00000000E+00 -0.10330830E+01  0.20000000E-01    1    0
 VARIABLES= X1,X2,Y1,Y2,R,ID,RK
ZONE T="   70" 
SOLUTIONTIME=     0.10689434,STRANDID=   1
  0.50000000E+00  0.44151314E+00  0.00000000E+00 -0.10634678E+01  0.20000000E-01    1    0
 VARIABLES= X1,X2,Y1,Y2,R,ID,RK
ZONE T="   72" 
SOLUTIONTIME=     0.10999273,STRANDID=   1
  0.50000000E+00  0.43814750E+00  0.00000000E+00 -0.10938526E+01  0.20000000E-01    1    0
 VARIABLES= X1,X2,Y1,Y2,R,ID,RK
ZONE T="   74" 
SOLUTIONTIME=     0.11309111,STRANDID=   1
  0.50000000E+00  0.43468771E+00  0.00000000E+00 -0.11242374E+01  0.20000000E-01    1    0
 VARIABLES= X1,X2,Y1,Y2,R,ID,RK
ZONE T="   76" 
SOLUTIONTIME=     0.11618950,STRANDID=   1
  0.50000000E+00  0.43113378E+00  0.00000000E+00 -0.11546222E+01  0.20000000E-01    1    0
 VARIABLES= X1,X2,Y1,Y2,R,ID,RK
ZONE T="   78" 
SOLUTIONTIME=     0.11928789,STRANDID=   1
  0.50000000E+00  0.42748571E+00  0.00000000E+00 -0.11850070E+01  0.20000000E-01    1    0
 VARIABLES= X1,X2,Y1,Y2,R,ID,RK
ZONE T="   80" 
SOLUTIONTIME=     0.12238627,STRANDID=   1
  0.50000000E+00  0.42374349E+00  0.00000000E+00 -0.12153917E+01  0.20000000E-01    1    0
 VARIABLES= X1,X2,Y1,Y2,R,ID,RK
ZONE T="   82" 
SOLUTIONTIME=     0.12548466,STRANDID=   1
  0.50000000E+00  0.41990713E+00  0.00000000E+00 -0.12457765E+01  0.20000000E-01    1    0
 VARIABLES= X1,X2,Y1,Y2,R,ID,RK
ZONE T="   84" 
SOLUTIONTIME=     0.12858305,STRANDID=   1
  0.50000000E+00  0.41597662E+00  0.00000000E+00 -0.12761613E+01  0.20000000E-01    1    0
 VARIABLES= X1,X2,Y1,Y2,R,ID,RK
ZONE T="   86" 
SOLUTIONTIME=     0.13168143,STRANDID=   1
  0.50000000E+00  0.41195197E+00  0.00000000E+00 -0.13065461E+01  0.20000000E-01    1    0
 VARIABLES= X1,X2,Y1,Y2,R,ID,RK
ZONE T="   88" 
SOLUTIONTIME=     0.13477982,STRANDID=   1
  0.50000000E+00  0.40783318E+00  0.00000000E+00 -0.13369309E+01  0.20000000E-01    1    0
 VARIABLES= X1,X2,Y1,Y2,R,ID,RK
ZONE T="   90" 
SOLUTIONTIME=     0.13787821,STRANDID=   1
  0.50000000E+00  0.40362024E+00  0.00000000E+00 -0.13673157E+01  0.20000000E-01    1    0
 VARIABLES= X1,X2,Y1,Y2,R,ID,RK
ZONE T="   92" 
SOLUTIONTIME=     0.14097659,STRANDID=   1
  0.50000000E+00  0.39931316E+00  0.00000000E+00 -0.13977005E+01  0.20000000E-01    1    0
 VARIABLES= X1,X2,Y1,Y2,R,ID,RK
ZONE T="   94" 
SOLUTIONTIME=     0.14407498,STRANDID=   1
  0.50000000E+00  0.39491194E+00  0.00000000E+00 -0.14280853E+01  0.20000000E-01    1    0
 VARIABLES= X1,X2,Y1,Y2,R,ID,RK
ZONE T="   96" 
SOLUTIONTIME=     0.14717337,STRANDID=   1
  0.50000000E+00  0.39041657E+00  0.00000000E+00 -0.14584701E+01  0.20000000E-01    1    0
 VARIABLES= X1,X2,Y1,Y2,R,ID,RK
ZONE T="   98" 
SOLUTIONTIME=     0.15027175,STRANDID=   1
  0.50000000E+00  0.38582706E+00  0.00000000E+00 -0.14888549E+01  0.20000000E-01    1    0
 VARIABLES= X1,X2,Y1,Y2,R,ID,RK
ZONE T="  100" 
SOLUTIONTIME=     0.15337014,STRANDID=   1
  0.50000000E+00  0.38114340E+00  0.00000000E+00 -0.15192397E+01  0.20000000E-01    1    0
 VARIABLES= X1,X2,Y1,Y2,R,ID,RK
ZONE T="  102" 
SOLUTIONTIME=     0.15646853,STRANDID=   1
  0.50000000E+00  0.37636560E+00  0.00000000E+00 -0.15496245E+01  0.20000000E-01    1    0
 VARIABLES= X1,X2,Y1,Y2,R,ID,RK
ZONE T="  104" 
SOLUTIONTIME=     0.15956691,STRANDID=   1
  0.50000000E+00  0.37149366E+00  0.00000000E+00 -0.15800093E+01  0.20000000E-01    1    0
 VARIABLES= X1,X2,Y1,Y2,R,ID,RK
ZONE T="  106" 
SOLUTIONTIME=     0.16266530,STRANDID=   1
  0.50000000E+00  0.36652757E+00  0.00000000E+00 -0.16103941E+01  0.20000000E-01    1    0
 VARIABLES= X1,X2,Y1,Y2,R,ID,RK
ZONE T="  108" 
SOLUTIONTIME=     0.16576369,STRANDID=   1
  0.50000000E+00  0.36146734E+00  0.00000000E+00 -0.16407789E+01  0.20000000E-01    1    0
 VARIABLES= X1,X2,Y1,Y2,R,ID,RK
ZONE T="  110" 
SOLUTIONTIME=     0.16886207,STRANDID=   1
  0.50000000E+00  0.35631296E+00  0.00000000E+00 -0.16711637E+01  0.20000000E-01    1    0
 VARIABLES= X1,X2,Y1,Y2,R,ID,RK
ZONE T="  112" 
SOLUTIONTIME=     0.17196046,STRANDID=   1
  0.50000000E+00  0.35106445E+00  0.00000000E+00 -0.17015484E+01  0.20000000E-01    1    0
 VARIABLES= X1,X2,Y1,Y2,R,ID,RK
ZONE T="  114" 
SOLUTIONTIME=     0.17505885,STRANDID=   1
  0.50000000E+00  0.34572178E+00  0.00000000E+00 -0.17319332E+01  0.20000000E-01    1    0
 VARIABLES= X1,X2,Y1,Y2,R,ID,RK
ZONE T="  116" 
SOLUTIONTIME=     0.17815723,STRANDID=   1
  0.50000000E+00  0.34028498E+00  0.00000000E+00 -0.17623180E+01  0.20000000E-01    1    0
 VARIABLES= X1,X2,Y1,Y2,R,ID,RK
ZONE T="  118" 
SOLUTIONTIME=     0.18125562,STRANDID=   1
  0.50000000E+00  0.33475402E+00  0.00000000E+00 -0.17927028E+01  0.20000000E-01    1    0
 VARIABLES= X1,X2,Y1,Y2,R,ID,RK
ZONE T="  120" 
SOLUTIONTIME=     0.18435401,STRANDID=   1
  0.50000000E+00  0.32912893E+00  0.00000000E+00 -0.18230876E+01  0.20000000E-01    1    0
 VARIABLES= X1,X2,Y1,Y2,R,ID,RK
ZONE T="  122" 
SOLUTIONTIME=     0.18745239,STRANDID=   1
  0.50000000E+00  0.32340969E+00  0.00000000E+00 -0.18534724E+01  0.20000000E-01    1    0
 VARIABLES= X1,X2,Y1,Y2,R,ID,RK
ZONE T="  124" 
SOLUTIONTIME=     0.19055078,STRANDID=   1
  0.50000000E+00  0.31759631E+00  0.00000000E+00 -0.18838572E+01  0.20000000E-01    1    0
 VARIABLES= X1,X2,Y1,Y2,R,ID,RK
ZONE T="  126" 
SOLUTIONTIME=     0.19364917,STRANDID=   1
  0.50000000E+00  0.31168878E+00  0.00000000E+00 -0.19142420E+01  0.20000000E-01    1    0
 VARIABLES= X1,X2,Y1,Y2,R,ID,RK
ZONE T="  128" 
SOLUTIONTIME=     0.19674755,STRANDID=   1
  0.50000000E+00  0.30568711E+00  0.00000000E+00 -0.19446268E+01  0.20000000E-01    1    0
 VARIABLES= X1,X2,Y1,Y2,R,ID,RK
ZONE T="  130" 
SOLUTIONTIME=     0.19984594,STRANDID=   1
  0.50000000E+00  0.29959130E+00  0.00000000E+00 -0.19750116E+01  0.20000000E-01    1    0
 VARIABLES= X1,X2,Y1,Y2,R,ID,RK
ZONE T="  132" 
SOLUTIONTIME=     0.20294433,STRANDID=   1
  0.50000000E+00  0.29340134E+00  0.00000000E+00 -0.20053964E+01  0.20000000E-01    1    0
 VARIABLES= X1,X2,Y1,Y2,R,ID,RK
ZONE T="  134" 
SOLUTIONTIME=     0.20604271,STRANDID=   1
  0.50000000E+00  0.28711724E+00  0.00000000E+00 -0.20357812E+01  0.20000000E-01    1    0
 VARIABLES= X1,X2,Y1,Y2,R,ID,RK
ZONE T="  136" 
SOLUTIONTIME=     0.20914110,STRANDID=   1
  0.50000000E+00  0.28073900E+00  0.00000000E+00 -0.20661660E+01  0.20000000E-01    1    0
 VARIABLES= X1,X2,Y1,Y2,R,ID,RK
ZONE T="  138" 
SOLUTIONTIME=     0.21223949,STRANDID=   1
  0.50000000E+00  0.27426661E+00  0.00000000E+00 -0.20965508E+01  0.20000000E-01    1    0
 VARIABLES= X1,X2,Y1,Y2,R,ID,RK
ZONE T="  140" 
SOLUTIONTIME=     0.21533787,STRANDID=   1
  0.50000000E+00  0.26770007E+00  0.00000000E+00 -0.21269356E+01  0.20000000E-01    1    0
 VARIABLES= X1,X2,Y1,Y2,R,ID,RK
ZONE T="  142" 
SOLUTIONTIME=     0.21843626,STRANDID=   1
  0.50000000E+00  0.26103940E+00  0.00000000E+00 -0.21573204E+01  0.20000000E-01    1    0
 VARIABLES= X1,X2,Y1,Y2,R,ID,RK
ZONE T="  144" 
SOLUTIONTIME=     0.22153465,STRANDID=   1
  0.50000000E+00  0.25428458E+00  0.00000000E+00 -0.21877051E+01  0.20000000E-01    1    0
 VARIABLES= X1,X2,Y1,Y2,R,ID,RK
ZONE T="  146" 
SOLUTIONTIME=     0.22463303,STRANDID=   1
  0.50000000E+00  0.24743561E+00  0.00000000E+00 -0.22180899E+01  0.20000000E-01    1    0
 VARIABLES= X1,X2,Y1,Y2,R,ID,RK
ZONE T="  148" 
SOLUTIONTIME=     0.22773142,STRANDID=   1
  0.50000000E+00  0.24049251E+00  0.00000000E+00 -0.22484747E+01  0.20000000E-01    1    0
 VARIABLES= X1,X2,Y1,Y2,R,ID,RK
ZONE T="  150" 
SOLUTIONTIME=     0.23082981,STRANDID=   1
  0.50000000E+00  0.23345525E+00  0.00000000E+00 -0.22788595E+01  0.20000000E-01    1    0
 VARIABLES= X1,X2,Y1,Y2,R,ID,RK
ZONE T="  152" 
SOLUTIONTIME=     0.23392819,STRANDID=   1
  0.50000000E+00  0.22632386E+00  0.00000000E+00 -0.23092443E+01  0.20000000E-01    1    0
 VARIABLES= X1,X2,Y1,Y2,R,ID,RK
ZONE T="  154" 
SOLUTIONTIME=     0.23702658,STRANDID=   1
  0.50000000E+00  0.21909832E+00  0.00000000E+00 -0.23396291E+01  0.20000000E-01    1    0
 VARIABLES= X1,X2,Y1,Y2,R,ID,RK
ZONE T="  156" 
SOLUTIONTIME=     0.24012497,STRANDID=   1
  0.50000000E+00  0.21177863E+00  0.00000000E+00 -0.23700139E+01  0.20000000E-01    1    0
 VARIABLES= X1,X2,Y1,Y2,R,ID,RK
ZONE T="  158" 
SOLUTIONTIME=     0.24322335,STRANDID=   1
  0.50000000E+00  0.20436481E+00  0.00000000E+00 -0.24003987E+01  0.20000000E-01    1    0
 VARIABLES= X1,X2,Y1,Y2,R,ID,RK
ZONE T="  160" 
SOLUTIONTIME=     0.24632174,STRANDID=   1
  0.50000000E+00  0.19685684E+00  0.00000000E+00 -0.24307835E+01  0.20000000E-01    1    0
 VARIABLES= X1,X2,Y1,Y2,R,ID,RK
ZONE T="  162" 
SOLUTIONTIME=     0.24942013,STRANDID=   1
  0.50000000E+00  0.18925472E+00  0.00000000E+00 -0.24611683E+01  0.20000000E-01    1    0
 VARIABLES= X1,X2,Y1,Y2,R,ID,RK
ZONE T="  164" 
SOLUTIONTIME=     0.25251851,STRANDID=   1
  0.50000000E+00  0.18155846E+00  0.00000000E+00 -0.24915531E+01  0.20000000E-01    1    0
 VARIABLES= X1,X2,Y1,Y2,R,ID,RK
ZONE T="  166" 
SOLUTIONTIME=     0.25561690,STRANDID=   1
  0.50000000E+00  0.17376806E+00  0.00000000E+00 -0.25219379E+01  0.20000000E-01    1    0
 VARIABLES= X1,X2,Y1,Y2,R,ID,RK
ZONE T="  168" 
SOLUTIONTIME=     0.25871529,STRANDID=   1
  0.50000000E+00  0.16588351E+00  0.00000000E+00 -0.25523227E+01  0.20000000E-01    1    0
 VARIABLES= X1,X2,Y1,Y2,R,ID,RK
ZONE T="  170" 
SOLUTIONTIME=     0.26181367,STRANDID=   1
  0.50000000E+00  0.15790482E+00  0.00000000E+00 -0.25827075E+01  0.20000000E-01    1    0
 VARIABLES= X1,X2,Y1,Y2,R,ID,RK
ZONE T="  172" 
SOLUTIONTIME=     0.26491206,STRANDID=   1
  0.50000000E+00  0.14983199E+00  0.00000000E+00 -0.26130923E+01  0.20000000E-01    1    0
 VARIABLES= X1,X2,Y1,Y2,R,ID,RK
ZONE T="  174" 
SOLUTIONTIME=     0.26801045,STRANDID=   1
  0.50000000E+00  0.14166501E+00  0.00000000E+00 -0.26434771E+01  0.20000000E-01    1    0
 VARIABLES= X1,X2,Y1,Y2,R,ID,RK
ZONE T="  176" 
SOLUTIONTIME=     0.27110883,STRANDID=   1
  0.50000000E+00  0.13340389E+00  0.00000000E+00 -0.26738618E+01  0.20000000E-01    1    0
 VARIABLES= X1,X2,Y1,Y2,R,ID,RK
ZONE T="  178" 
SOLUTIONTIME=     0.27420722,STRANDID=   1
  0.50000000E+00  0.12504862E+00  0.00000000E+00 -0.27042466E+01  0.20000000E-01    1    0
 VARIABLES= X1,X2,Y1,Y2,R,ID,RK
ZONE T="  180" 
SOLUTIONTIME=     0.27730561,STRANDID=   1
  0.50000000E+00  0.11659921E+00  0.00000000E+00 -0.27346314E+01  0.20000000E-01    1    0
 VARIABLES= X1,X2,Y1,Y2,R,ID,RK
ZONE T="  182" 
SOLUTIONTIME=     0.28040399,STRANDID=   1
  0.50000000E+00  0.10805566E+00  0.00000000E+00 -0.27650162E+01  0.20000000E-01    1    0
 VARIABLES= X1,X2,Y1,Y2,R,ID,RK
ZONE T="  184" 
SOLUTIONTIME=     0.28350238,STRANDID=   1
  0.50000000E+00  0.99417961E-01  0.00000000E+00 -0.27954010E+01  0.20000000E-01    1    0
 VARIABLES= X1,X2,Y1,Y2,R,ID,RK
ZONE T="  186" 
SOLUTIONTIME=     0.28660077,STRANDID=   1
  0.50000000E+00  0.90686120E-01  0.00000000E+00 -0.28257858E+01  0.20000000E-01    1    0
 VARIABLES= X1,X2,Y1,Y2,R,ID,RK
ZONE T="  188" 
SOLUTIONTIME=     0.28969915,STRANDID=   1
  0.50000000E+00  0.81860135E-01  0.00000000E+00 -0.28561706E+01  0.20000000E-01    1    0
 VARIABLES= X1,X2,Y1,Y2,R,ID,RK
ZONE T="  190" 
SOLUTIONTIME=     0.29279754,STRANDID=   1
  0.50000000E+00  0.72940006E-01  0.00000000E+00 -0.28865554E+01  0.20000000E-01    1    0
 VARIABLES= X1,X2,Y1,Y2,R,ID,RK
ZONE T="  192" 
SOLUTIONTIME=     0.29589593,STRANDID=   1
  0.50000000E+00  0.63925733E-01  0.00000000E+00 -0.29169402E+01  0.20000000E-01    1    0
 VARIABLES= X1,X2,Y1,Y2,R,ID,RK
ZONE T="  194" 
SOLUTIONTIME=     0.29899431,STRANDID=   1
  0.50000000E+00  0.54817317E-01  0.00000000E+00 -0.29473250E+01  0.20000000E-01    1    0
 VARIABLES= X1,X2,Y1,Y2,R,ID,RK
ZONE T="  196" 
SOLUTIONTIME=     0.30209270,STRANDID=   1
  0.50000000E+00  0.45614756E-01  0.00000000E+00 -0.29777098E+01  0.20000000E-01    1    0
 VARIABLES= X1,X2,Y1,Y2,R,ID,RK
ZONE T="  198" 
SOLUTIONTIME=     0.30519109,STRANDID=   1
  0.50000000E+00  0.36318052E-01  0.00000000E+00 -0.30080946E+01  0.20000000E-01    1    0
 VARIABLES= X1,X2,Y1,Y2,R,ID,RK
ZONE T="  200" 
SOLUTIONTIME=     0.30828947,STRANDID=   1
  0.50000000E+00  0.26950740E-01  0.00000000E+00 -0.30384794E+01  0.20000000E-01    1    0
 VARIABLES= X1,X2,Y1,Y2,R,ID,RK
ZONE T="  202" 
SOLUTIONTIME=     0.31138786,STRANDID=   1
  0.50000000E+00  0.22231780E-01  0.00000000E+00  0.30536716E+01  0.20000000E-01    1    0
 VARIABLES= X1,X2,Y1,Y2,R,ID,RK
ZONE T="  204" 
SOLUTIONTIME=     0.31448625,STRANDID=   1
  0.50000000E+00  0.31646163E-01  0.00000000E+00  0.30232868E+01  0.20000000E-01    1    0
 VARIABLES= X1,X2,Y1,Y2,R,ID,RK
ZONE T="  206" 
SOLUTIONTIME=     0.31758463,STRANDID=   1
  0.50000000E+00  0.40966403E-01  0.00000000E+00  0.29929020E+01  0.20000000E-01    1    0
 VARIABLES= X1,X2,Y1,Y2,R,ID,RK
ZONE T="  208" 
SOLUTIONTIME=     0.32068302,STRANDID=   1
  0.50000000E+00  0.50168962E-01  0.00000000E+00  0.29625172E+01  0.20000000E-01    1    0
 VARIABLES= X1,X2,Y1,Y2,R,ID,RK
ZONE T="  210" 
SOLUTIONTIME=     0.32378141,STRANDID=   1
  0.50000000E+00  0.59277378E-01  0.00000000E+00  0.29321324E+01  0.20000000E-01    1    0
 VARIABLES= X1,X2,Y1,Y2,R,ID,RK
ZONE T="  212" 
SOLUTIONTIME=     0.32687979,STRANDID=   1
  0.50000000E+00  0.68291650E-01  0.00000000E+00  0.29017476E+01  0.20000000E-01    1    0
 VARIABLES= X1,X2,Y1,Y2,R,ID,RK
ZONE T="  214" 
SOLUTIONTIME=     0.32997818,STRANDID=   1
  0.50000000E+00  0.77211779E-01  0.00000000E+00  0.28713628E+01  0.20000000E-01    1    0
 VARIABLES= X1,X2,Y1,Y2,R,ID,RK
ZONE T="  216" 
SOLUTIONTIME=     0.33307657,STRANDID=   1
  0.50000000E+00  0.86037763E-01  0.00000000E+00  0.28409780E+01  0.20000000E-01    1    0
 VARIABLES= X1,X2,Y1,Y2,R,ID,RK
ZONE T="  218" 
SOLUTIONTIME=     0.33617495,STRANDID=   1
  0.50000000E+00  0.94769604E-01  0.00000000E+00  0.28105932E+01  0.20000000E-01    1    0
 VARIABLES= X1,X2,Y1,Y2,R,ID,RK
ZONE T="  220" 
SOLUTIONTIME=     0.33927334,STRANDID=   1
  0.50000000E+00  0.10340730E+00  0.00000000E+00  0.27802084E+01  0.20000000E-01    1    0
 VARIABLES= X1,X2,Y1,Y2,R,ID,RK
ZONE T="  222" 
SOLUTIONTIME=     0.34237173,STRANDID=   1
  0.50000000E+00  0.11195085E+00  0.00000000E+00  0.27498236E+01  0.20000000E-01    1    0
 VARIABLES= X1,X2,Y1,Y2,R,ID,RK
ZONE T="  224" 
SOLUTIONTIME=     0.34547011,STRANDID=   1
  0.50000000E+00  0.12040026E+00  0.00000000E+00  0.27194388E+01  0.20000000E-01    1    0
 VARIABLES= X1,X2,Y1,Y2,R,ID,RK
ZONE T="  226" 
SOLUTIONTIME=     0.34856850,STRANDID=   1
  0.50000000E+00  0.12875553E+00  0.00000000E+00  0.26890540E+01  0.20000000E-01    1    0
 VARIABLES= X1,X2,Y1,Y2,R,ID,RK
ZONE T="  228" 
SOLUTIONTIME=     0.35166689,STRANDID=   1
  0.50000000E+00  0.13701665E+00  0.00000000E+00  0.26586692E+01  0.20000000E-01    1    0
 VARIABLES= X1,X2,Y1,Y2,R,ID,RK
ZONE T="  230" 
SOLUTIONTIME=     0.35476527,STRANDID=   1
  0.50000000E+00  0.14518363E+00  0.00000000E+00  0.26282845E+01  0.20000000E-01    1    0
 VARIABLES= X1,X2,Y1,Y2,R,ID,RK
ZONE T="  232" 
SOLUTIONTIME=     0.35786366,STRANDID=   1
  0.50000000E+00  0.15325646E+00  0.00000000E+00  0.25978997E+01  0.20000000E-01    1    0
 VARIABLES= X1,X2,Y1,Y2,R,ID,RK
ZONE T="  234" 
SOLUTIONTIME=     0.36096205,STRANDID=   1
  0.50000000E+00  0.16123515E+00  0.00000000E+00  0.25675149E+01  0.20000000E-01    1    0
 VARIABLES= X1,X2,Y1,Y2,R,ID,RK
ZONE T="  236" 
SOLUTIONTIME=     0.36406043,STRANDID=   1
  0.50000000E+00  0.16911970E+00  0.00000000E+00  0.25371301E+01  0.20000000E-01    1    0
 VARIABLES= X1,X2,Y1,Y2,R,ID,RK
ZONE T="  238" 
SOLUTIONTIME=     0.36715882,STRANDID=   1
  0.50000000E+00  0.17691010E+00  0.00000000E+00  0.25067453E+01  0.20000000E-01    1    0
 VARIABLES= X1,X2,Y1,Y2,R,ID,RK
ZONE T="  240" 
SOLUTIONTIME=     0.37025721,STRANDID=   1
  0.50000000E+00  0.18460636E+00  0.00000000E+00  0.24763605E+01  0.20000000E-01    1    0
 VARIABLES= X1,X2,Y1,Y2,R,ID,RK
ZONE T="  242" 
SOLUTIONTIME=     0.37335559,STRANDID=   1
  0.50000000E+00  0.19220847E+00  0.00000000E+00  0.24459757E+01  0.20000000E-01    1    0
 VARIABLES= X1,X2,Y1,Y2,R,ID,RK
ZONE T="  244" 
SOLUTIONTIME=     0.37645398,STRANDID=   1
  0.50000000E+00  0.19971644E+00  0.00000000E+00  0.24155909E+01  0.20000000E-01    1    0
 VARIABLES= X1,X2,Y1,Y2,R,ID,RK
ZONE T="  246" 
SOLUTIONTIME=     0.37955237,STRANDID=   1
  0.50000000E+00  0.20713027E+00  0.00000000E+00  0.23852061E+01  0.20000000E-01    1    0
 VARIABLES= X1,X2,Y1,Y2,R,ID,RK
ZONE T="  248" 
SOLUTIONTIME=     0.38265075,STRANDID=   1
  0.50000000E+00  0.21444995E+00  0.00000000E+00  0.23548213E+01  0.20000000E-01    1    0
 VARIABLES= X1,X2,Y1,Y2,R,ID,RK
ZONE T="  250" 
SOLUTIONTIME=     0.38574914,STRANDID=   1
  0.50000000E+00  0.22167549E+00  0.00000000E+00  0.23244365E+01  0.20000000E-01    1    0
 VARIABLES= X1,X2,Y1,Y2,R,ID,RK
ZONE T="  252" 
SOLUTIONTIME=     0.38884753,STRANDID=   1
  0.50000000E+00  0.22880689E+00  0.00000000E+00  0.22940517E+01  0.20000000E-01    1    0
 VARIABLES= X1,X2,Y1,Y2,R,ID,RK
ZONE T="  254" 
SOLUTIONTIME=     0.39194591,STRANDID=   1
  0.50000000E+00  0.23584414E+00  0.00000000E+00  0.22636669E+01  0.20000000E-01    1    0
 VARIABLES= X1,X2,Y1,Y2,R,ID,RK
ZONE T="  256" 
SOLUTIONTIME=     0.39504430,STRANDID=   1
  0.50000000E+00  0.24278724E+00  0.00000000E+00  0.22332821E+01  0.20000000E-01    1    0
 VARIABLES= X1,X2,Y1,Y2,R,ID,RK
ZONE T="  258" 
SOLUTIONTIME=     0.39814269,STRANDID=   1
  0.50000000E+00  0.24963621E+00  0.00000000E+00  0.22028973E+01  0.20000000E-01    1    0
 VARIABLES= X1,X2,Y1,Y2,R,ID,RK
ZONE T="  260" 
SOLUTIONTIME=     0.40124107,STRANDID=   1
  0.50000000E+00  0.25639103E+00  0.00000000E+00  0.21725125E+01  0.20000000E-01    1    0
 VARIABLES= X1,X2,Y1,Y2,R,ID,RK
ZONE T="  262" 
SOLUTIONTIME=     0.40433946,STRANDID=   1
  0.50000000E+00  0.26305170E+00  0.00000000E+00  0.21421278E+01  0.20000000E-01    1    0
 VARIABLES= X1,X2,Y1,Y2,R,ID,RK
ZONE T="  264" 
SOLUTIONTIME=     0.40743785,STRANDID=   1
  0.50000000E+00  0.26961824E+00  0.00000000E+00  0.21117430E+01  0.20000000E-01    1    0
 VARIABLES= X1,X2,Y1,Y2,R,ID,RK
ZONE T="  266" 
SOLUTIONTIME=     0.41053623,STRANDID=   1
  0.50000000E+00  0.27609062E+00  0.00000000E+00  0.20813582E+01  0.20000000E-01    1    0
 VARIABLES= X1,X2,Y1,Y2,R,ID,RK
ZONE T="  268" 
SOLUTIONTIME=     0.41363462,STRANDID=   1
  0.50000000E+00  0.28246887E+00  0.00000000E+00  0.20509734E+01  0.20000000E-01    1    0
 VARIABLES= X1,X2,Y1,Y2,R,ID,RK
ZONE T="  270" 
SOLUTIONTIME=     0.41673301,STRANDID=   1
  0.50000000E+00  0.28875297E+00  0.00000000E+00  0.20205886E+01  0.20000000E-01    1    0
 VARIABLES= X1,X2,Y1,Y2,R,ID,RK
ZONE T="  272" 
SOLUTIONTIME=     0.41983139,STRANDID=   1
  0.50000000E+00  0.29494293E+00  0.00000000E+00  0.19902038E+01  0.20000000E-01    1    0
 VARIABLES= X1,X2,Y1,Y2,R,ID,RK
ZONE T="  274" 
SOLUTIONTIME=     0.42292978,STRANDID=   1
  0.50000000E+00  0.30103874E+00  0.00000000E+00  0.19598190E+01  0.20000000E-01    1    0
 VARIABLES= X1,X2,Y1,Y2,R,ID,RK
ZONE T="  276" 
SOLUTIONTIME=     0.42602817,STRANDID=   1
  0.50000000E+00  0.30704041E+00  0.00000000E+00  0.19294342E+01  0.20000000E-01    1    0
 VARIABLES= X1,X2,Y1,Y2,R,ID,RK
ZONE T="  278" 
SOLUTIONTIME=     0.42912655,STRANDID=   1
  0.50000000E+00  0.31294793E+00  0.00000000E+00  0.18990494E+01  0.20000000E-01    1    0
 VARIABLES= X1,X2,Y1,Y2,R,ID,RK
ZONE T="  280" 
SOLUTIONTIME=     0.43222494,STRANDID=   1
  0.50000000E+00  0.31876132E+00  0.00000000E+00  0.18686646E+01  0.20000000E-01    1    0
 VARIABLES= X1,X2,Y1,Y2,R,ID,RK
ZONE T="  282" 
SOLUTIONTIME=     0.43532333,STRANDID=   1
  0.50000000E+00  0.32448055E+00  0.00000000E+00  0.18382798E+01  0.20000000E-01    1    0
 VARIABLES= X1,X2,Y1,Y2,R,ID,RK
ZONE T="  284" 
SOLUTIONTIME=     0.43842171,STRANDID=   1
  0.50000000E+00  0.33010565E+00  0.00000000E+00  0.18078950E+01  0.20000000E-01    1    0
 VARIABLES= X1,X2,Y1,Y2,R,ID,RK
ZONE T="  286" 
SOLUTIONTIME=     0.44152010,STRANDID=   1
  0.50000000E+00  0.33563660E+00  0.00000000E+00  0.17775102E+01  0.20000000E-01    1    0
 VARIABLES= X1,X2,Y1,Y2,R,ID,RK
ZONE T="  288" 
SOLUTIONTIME=     0.44461849,STRANDID=   1
  0.50000000E+00  0.34107340E+00  0.00000000E+00  0.17471254E+01  0.20000000E-01    1    0
 VARIABLES= X1,X2,Y1,Y2,R,ID,RK
ZONE T="  290" 
SOLUTIONTIME=     0.44771687,STRANDID=   1
  0.50000000E+00  0.34641607E+00  0.00000000E+00  0.17167406E+01  0.20000000E-01    1    0
 VARIABLES= X1,X2,Y1,Y2,R,ID,RK
ZONE T="  292" 
SOLUTIONTIME=     0.45081526,STRANDID=   1
  0.50000000E+00  0.35166458E+00  0.00000000E+00  0.16863559E+01  0.20000000E-01    1    0
 VARIABLES= X1,X2,Y1,Y2,R,ID,RK
ZONE T="  294" 
SOLUTIONTIME=     0.45391365,STRANDID=   1
  0.50000000E+00  0.35681896E+00  0.00000000E+00  0.16559711E+01  0.20000000E-01    1    0
 VARIABLES= X1,X2,Y1,Y2,R,ID,RK
ZONE T="  296" 
SOLUTIONTIME=     0.45701203,STRANDID=   1
  0.50000000E+00  0.36187919E+00  0.00000000E+00  0.16255863E+01  0.20000000E-01    1    0
 VARIABLES= X1,X2,Y1,Y2,R,ID,RK
ZONE T="  298" 
SOLUTIONTIME=     0.46011042,STRANDID=   1
  0.50000000E+00  0.36684528E+00  0.00000000E+00  0.15952015E+01  0.20000000E-01    1    0
 VARIABLES= X1,X2,Y1,Y2,R,ID,RK
ZONE T="  300" 
SOLUTIONTIME=     0.46320881,STRANDID=   1
  0.50000000E+00  0.37171722E+00  0.00000000E+00  0.15648167E+01  0.20000000E-01    1    0
 VARIABLES= X1,X2,Y1,Y2,R,ID,RK
ZONE T="  302" 
SOLUTIONTIME=     0.46630719,STRANDID=   1
  0.50000000E+00  0.37649502E+00  0.00000000E+00  0.15344319E+01  0.20000000E-01    1    0
 VARIABLES= X1,X2,Y1,Y2,R,ID,RK
ZONE T="  304" 
SOLUTIONTIME=     0.46940558,STRANDID=   1
  0.50000000E+00  0.38117867E+00  0.00000000E+00  0.15040471E+01  0.20000000E-01    1    0
 VARIABLES= X1,X2,Y1,Y2,R,ID,RK
ZONE T="  306" 
SOLUTIONTIME=     0.47250397,STRANDID=   1
  0.50000000E+00  0.38576819E+00  0.00000000E+00  0.14736623E+01  0.20000000E-01    1    0
 VARIABLES= X1,X2,Y1,Y2,R,ID,RK
ZONE T="  308" 
SOLUTIONTIME=     0.47560235,STRANDID=   1
  0.50000000E+00  0.39026355E+00  0.00000000E+00  0.14432775E+01  0.20000000E-01    1    0
 VARIABLES= X1,X2,Y1,Y2,R,ID,RK
ZONE T="  310" 
SOLUTIONTIME=     0.47870074,STRANDID=   1
  0.50000000E+00  0.39466478E+00  0.00000000E+00  0.14128927E+01  0.20000000E-01    1    0
 VARIABLES= X1,X2,Y1,Y2,R,ID,RK
ZONE T="  312" 
SOLUTIONTIME=     0.48179913,STRANDID=   1
  0.50000000E+00  0.39897186E+00  0.00000000E+00  0.13825079E+01  0.20000000E-01    1    0
 VARIABLES= X1,X2,Y1,Y2,R,ID,RK
ZONE T="  314" 
SOLUTIONTIME=     0.48489751,STRANDID=   1
  0.50000000E+00  0.40318479E+00  0.00000000E+00  0.13521231E+01  0.20000000E-01    1    0
 VARIABLES= X1,X2,Y1,Y2,R,ID,RK
ZONE T="  316" 
SOLUTIONTIME=     0.48799590,STRANDID=   1
  0.50000000E+00  0.40730359E+00  0.00000000E+00  0.13217383E+01  0.20000000E-01    1    0
 VARIABLES= X1,X2,Y1,Y2,R,ID,RK
ZONE T="  318" 
SOLUTIONTIME=     0.49109429,STRANDID=   1
  0.50000000E+00  0.41132823E+00  0.00000000E+00  0.12913535E+01  0.20000000E-01    1    0
 VARIABLES= X1,X2,Y1,Y2,R,ID,RK
ZONE T="  320" 
SOLUTIONTIME=     0.49419267,STRANDID=   1
  0.50000000E+00  0.41525874E+00  0.00000000E+00  0.12609687E+01  0.20000000E-01    1    0
 VARIABLES= X1,X2,Y1,Y2,R,ID,RK
ZONE T="  322" 
SOLUTIONTIME=     0.49729106,STRANDID=   1
  0.50000000E+00  0.41909510E+00  0.00000000E+00  0.12305839E+01  0.20000000E-01    1    0
 VARIABLES= X1,X2,Y1,Y2,R,ID,RK
ZONE T="  324" 
SOLUTIONTIME=     0.50038945,STRANDID=   1
  0.50000000E+00  0.42283732E+00  0.00000000E+00  0.12001992E+01  0.20000000E-01    1    0
 VARIABLES= X1,X2,Y1,Y2,R,ID,RK
ZONE T="  326" 
SOLUTIONTIME=     0.50348784,STRANDID=   1
  0.50000000E+00  0.42648539E+00  0.00000000E+00  0.11698144E+01  0.20000000E-01    1    0
 VARIABLES= X1,X2,Y1,Y2,R,ID,RK
ZONE T="  328" 
SOLUTIONTIME=     0.50658622,STRANDID=   1
  0.50000000E+00  0.43003932E+00  0.00000000E+00  0.11394296E+01  0.20000000E-01    1    0
 VARIABLES= X1,X2,Y1,Y2,R,ID,RK
ZONE T="  330" 
SOLUTIONTIME=     0.50968461,STRANDID=   1