 VARIABLES= X1,X2,Y1,Y2,R,ID,RK
ZONE T="    2" 
SOLUTIONTIME=     0.01000000,STRANDID=   1
  0.12000000E+00  0.11803867E+00  0.10000000E+01  0.80386700E+00  0.10000000E+00    1    0
 VARIABLES= X1,X2,Y1,Y2,R,ID,RK
ZONE T="    4" 
SOLUTIONTIME=     0.03000000,STRANDID=   1
  0.14000000E+00  0.13215468E+00  0.10000000E+01  0.60773400E+00  0.10000000E+00    1    0
 VARIABLES= X1,X2,Y1,Y2,R,ID,RK
ZONE T="    6" 
SOLUTIONTIME=     0.05000000,STRANDID=   1
  0.16000000E+00  0.14234803E+00  0.10000000E+01  0.41160100E+00  0.10000000E+00    1    0
 VARIABLES= X1,X2,Y1,Y2,R,ID,RK
ZONE T="    8" 
SOLUTIONTIME=     0.07000000,STRANDID=   1
  0.18000000E+00  0.14861872E+00  0.10000000E+01  0.21546800E+00  0.10000000E+00    1    0
 VARIABLES= X1,X2,Y1,Y2,R,ID,RK
ZONE T="   10" 
SOLUTIONTIME=     0.09000000,STRANDID=   1
  0.20000000E+00  0.15096675E+00  0.10000000E+01  0.19335000E-01  0.10000000E+00    1    0
 VARIABLES= X1,X2,Y1,Y2,R,ID,RK
ZONE T="   12" 
SOLUTIONTIME=     0.11000000,STRANDID=   1
  0.22000000E+00  0.14939212E+00  0.10000000E+01 -0.17679800E+00  0.10000000E+00    1    0
 VARIABLES= X1,X2,Y1,Y2,R,ID,RK
ZONE T="   14" 
SOLUTIONTIME=     0.13000000,STRANDID=   1
  0.24000000E+00  0.14389483E+00  0.10000000E+01 -0.37293100E+00  0.10000000E+00    1    0
 VARIABLES= X1,X2,Y1,Y2,R,ID,RK
ZONE T="   16" 
SOLUTIONTIME=     0.15000000,STRANDID=   1
  0.26000000E+00  0.13447488E+00  0.10000000E+01 -0.56906400E+00  0.10000000E+00    1    0
 VARIABLES= X1,X2,Y1,Y2,R,ID,RK
ZONE T="   18" 
SOLUTIONTIME=     0.17000000,STRANDID=   1
  0.28000000E+00  0.12113227E+00  0.10000000E+01 -0.76519700E+00  0.10000000E+00    1    0
 VARIABLES= X1,X2,Y1,Y2,R,ID,RK
ZONE T="   20" 
SOLUTIONTIME=     0.19000000,STRANDID=   1
  0.30000000E+00  0.10386700E+00  0.10000000E+01 -0.96133000E+00  0.10000000E+00    1    0
 VARIABLES= X1,X2,Y1,Y2,R,ID,RK
ZONE T="   22" 
SOLUTIONTIME=     0.21000000,STRANDID=   1
  0.31858351E+00  0.11154153E+00  0.90556713E+00  0.76670088E+00  0.10000000E+00    1    0
 VARIABLES= X1,X2,Y1,Y2,R,ID,RK
ZONE T="   24" 
SOLUTIONTIME=     0.23000000,STRANDID=   1
  0.33669485E+00  0.12491422E+00  0.90556713E+00  0.57056788E+00  0.10000000E+00    1    0
 VARIABLES= X1,X2,Y1,Y2,R,ID,RK
ZONE T="   26" 
SOLUTIONTIME=     0.25000000,STRANDID=   1
  0.35480619E+00  0.13436424E+00  0.90556713E+00  0.37443488E+00  0.10000000E+00    1    0
 VARIABLES= X1,X2,Y1,Y2,R,ID,RK
ZONE T="   28" 
SOLUTIONTIME=     0.27000000,STRANDID=   1
  0.37291754E+00  0.13989161E+00  0.90556713E+00  0.17830188E+00  0.10000000E+00    1    0
 VARIABLES= X1,X2,Y1,Y2,R,ID,RK
ZONE T="   30" 
SOLUTIONTIME=     0.29000000,STRANDID=   1
  0.39102888E+00  0.14149632E+00  0.90556713E+00 -0.17831123E-01  0.10000000E+00    1    0
 VARIABLES= X1,X2,Y1,Y2,R,ID,RK
ZONE T="   32" 
SOLUTIONTIME=     0.31000000,STRANDID=   1
  0.40914022E+00  0.13917837E+00  0.90556713E+00 -0.21396412E+00  0.10000000E+00    1    0
 VARIABLES= X1,X2,Y1,Y2,R,ID,RK
ZONE T="   34" 
SOLUTIONTIME=     0.33000000,STRANDID=   1
  0.42725156E+00  0.13293775E+00  0.90556713E+00 -0.41009712E+00  0.10000000E+00    1    0
 VARIABLES= X1,X2,Y1,Y2,R,ID,RK
ZONE T="   36" 
SOLUTIONTIME=     0.35000000,STRANDID=   1
  0.44536291E+00  0.12277448E+00  0.90556713E+00 -0.60623012E+00  0.10000000E+00    1    0
 VARIABLES= X1,X2,Y1,Y2,R,ID,RK
ZONE T="   38" 
SOLUTIONTIME=     0.37000000,STRANDID=   1
  0.46347425E+00  0.10868855E+00  0.90556713E+00 -0.80236312E+00  0.10000000E+00    1    0
 VARIABLES= X1,X2,Y1,Y2,R,ID,RK
ZONE T="   40" 
SOLUTIONTIME=     0.39000000,STRANDID=   1
  0.48111097E+00  0.99766811E-01  0.81064317E+00  0.81887477E+00  0.10000000E+00    1    0
 VARIABLES= X1,X2,Y1,Y2,R,ID,RK
ZONE T="   42" 
SOLUTIONTIME=     0.41000000,STRANDID=   1
  0.49732383E+00  0.11418298E+00  0.81064317E+00  0.62274177E+00  0.10000000E+00    1    0
 VARIABLES= X1,X2,Y1,Y2,R,ID,RK
ZONE T="   44" 
SOLUTIONTIME=     0.43000000,STRANDID=   1
  0.51353670E+00  0.12467648E+00  0.81064317E+00  0.42660877E+00  0.10000000E+00    1    0
 VARIABLES= X1,X2,Y1,Y2,R,ID,RK
ZONE T="   46" 
SOLUTIONTIME=     0.45000000,STRANDID=   1
  0.52974956E+00  0.13124733E+00  0.81064317E+00  0.23047577E+00  0.10000000E+00    1    0
 VARIABLES= X1,X2,Y1,Y2,R,ID,RK
ZONE T="   48" 
SOLUTIONTIME=     0.47000000,STRANDID=   1
  0.54596242E+00  0.13389551E+00  0.81064317E+00  0.34342767E-01  0.10000000E+00    1    0
 VARIABLES= X1,X2,Y1,Y2,R,ID,RK
ZONE T="   50" 
SOLUTIONTIME=     0.49000000,STRANDID=   1
  0.56217529E+00  0.13262104E+00  0.81064317E+00 -0.16179023E+00  0.10000000E+00    1    0
 VARIABLES= X1,X2,Y1,Y2,R,ID,RK
ZONE T="   52" 
SOLUTIONTIME=     0.51000000,STRANDID=   1
  0.57838815E+00  0.12742390E+00  0.81064317E+00 -0.35792323E+00  0.10000000E+00    1    0
 VARIABLES= X1,X2,Y1,Y2,R,ID,RK
ZONE T="   54" 
SOLUTIONTIME=     0.53000000,STRANDID=   1
  0.59460101E+00  0.11830411E+00  0.81064317E+00 -0.55405623E+00  0.10000000E+00    1    0
 VARIABLES= X1,X2,Y1,Y2,R,ID,RK
ZONE T="   56" 
SOLUTIONTIME=     0.55000000,STRANDID=   1
  0.61081388E+00  0.10526165E+00  0.81064317E+00 -0.75018923E+00  0.10000000E+00    1    0
 VARIABLES= X1,X2,Y1,Y2,R,ID,RK
ZONE T="   58" 
SOLUTIONTIME=     0.57000000,STRANDID=   1
  0.63024375E+00  0.11116947E+00  0.10251102E+01  0.57854009E+00  0.10000000E+00    1    0
 VARIABLES= X1,X2,Y1,Y2,R,ID,RK
ZONE T="   60" 
SOLUTIONTIME=     0.59000000,STRANDID=   1
  0.65074595E+00  0.12077895E+00  0.10251102E+01  0.38240709E+00  0.10000000E+00    1    0
 VARIABLES= X1,X2,Y1,Y2,R,ID,RK
ZONE T="   62" 
SOLUTIONTIME=     0.61000000,STRANDID=   1
  0.67124816E+00  0.12646576E+00  0.10251102E+01  0.18627409E+00  0.10000000E+00    1    0
 VARIABLES= X1,X2,Y1,Y2,R,ID,RK
ZONE T="   64" 
SOLUTIONTIME=     0.63000000,STRANDID=   1
  0.69175036E+00  0.12822991E+00  0.10251102E+01 -0.98589130E-02  0.10000000E+00    1    0
 VARIABLES= X1,X2,Y1,Y2,R,ID,RK
ZONE T="   66" 
SOLUTIONTIME=     0.65000000,STRANDID=   1
  0.71225256E+00  0.12607140E+00  0.10251102E+01 -0.20599191E+00  0.10000000E+00    1    0
 VARIABLES= X1,X2,Y1,Y2,R,ID,RK
ZONE T="   68" 
SOLUTIONTIME=     0.67000000,STRANDID=   1
  0.73275477E+00  0.11999023E+00  0.10251102E+01 -0.40212491E+00  0.10000000E+00    1    0
 VARIABLES= X1,X2,Y1,Y2,R,ID,RK
ZONE T="   70" 
SOLUTIONTIME=     0.69000000,STRANDID=   1
  0.75325697E+00  0.10998640E+00  0.10251102E+01 -0.59825791E+00  0.10000000E+00    1    0
 VARIABLES= X1,X2,Y1,Y2,R,ID,RK
ZONE T="   72" 
SOLUTIONTIME=     0.71000000,STRANDID=   1
  0.77342373E+00  0.10300343E+00  0.95801977E+00  0.59431240E+00  0.10000000E+00    1    0
 VARIABLES= X1,X2,Y1,Y2,R,ID,RK
ZONE T="   74" 
SOLUTIONTIME=     0.73000000,STRANDID=   1
  0.79258412E+00  0.11292835E+00  0.95801977E+00  0.39817940E+00  0.10000000E+00    1    0
 VARIABLES= X1,X2,Y1,Y2,R,ID,RK
ZONE T="   76" 
SOLUTIONTIME=     0.75000000,STRANDID=   1
  0.81174452E+00  0.11893061E+00  0.95801977E+00  0.20204640E+00  0.10000000E+00    1    0
 VARIABLES= X1,X2,Y1,Y2,R,ID,RK
ZONE T="   78" 
SOLUTIONTIME=     0.77000000,STRANDID=   1
  0.83090491E+00  0.12101021E+00  0.95801977E+00  0.59133972E-02  0.10000000E+00    1    0
 VARIABLES= X1,X2,Y1,Y2,R,ID,RK
ZONE T="   80" 
SOLUTIONTIME=     0.79000000,STRANDID=   1
  0.85006531E+00  0.11916714E+00  0.95801977E+00 -0.19021960E+00  0.10000000E+00    1    0
 VARIABLES= X1,X2,Y1,Y2,R,ID,RK
ZONE T="   82" 
SOLUTIONTIME=     0.81000000,STRANDID=   1
  0.86922570E+00  0.11340142E+00  0.95801977E+00 -0.38635260E+00  0.10000000E+00    1    0
 VARIABLES= X1,X2,Y1,Y2,R,ID,RK
ZONE T="   84" 
SOLUTIONTIME=     0.83000000,STRANDID=   1
  0.88838610E+00  0.10371304E+00  0.95801977E+00 -0.58248560E+00  0.10000000E+00    1    0
 VARIABLES= X1,X2,Y1,Y2,R,ID,RK
ZONE T="   86" 
SOLUTIONTIME=     0.85000000,STRANDID=   1
  0.90662953E+00  0.10772023E+00  0.89688868E+00  0.39593021E+00  0.10000000E+00    1    0
 VARIABLES= X1,X2,Y1,Y2,R,ID,RK
ZONE T="   88" 
SOLUTIONTIME=     0.87000000,STRANDID=   1
  0.92456730E+00  0.11367750E+00  0.89688868E+00  0.19979721E+00  0.10000000E+00    1    0
 VARIABLES= X1,X2,Y1,Y2,R,ID,RK
ZONE T="   90" 
SOLUTIONTIME=     0.89000000,STRANDID=   1
  0.94250507E+00  0.11571212E+00  0.89688868E+00  0.36642066E-02  0.10000000E+00    1    0
 VARIABLES= X1,X2,Y1,Y2,R,ID,RK
ZONE T="   92" 
SOLUTIONTIME=     0.91000000,STRANDID=   1
  0.96044285E+00  0.11382407E+00  0.89688868E+00 -0.19246879E+00  0.10000000E+00    1    0
 VARIABLES= X1,X2,Y1,Y2,R,ID,RK
ZONE T="   94" 
SOLUTIONTIME=     0.93000000,STRANDID=   1
  0.97838062E+00  0.10801337E+00  0.89688868E+00 -0.38860179E+00  0.10000000E+00    1    0
 VARIABLES= X1,X2,Y1,Y2,R,ID,RK
ZONE T="   96" 
SOLUTIONTIME=     0.95000000,STRANDID=   1
  0.99703333E+00  0.10320625E+00  0.10398763E+01  0.40051588E+00  0.10000000E+00    1    0
 VARIABLES= X1,X2,Y1,Y2,R,ID,RK
ZONE T="   98" 
SOLUTIONTIME=     0.97000000,STRANDID=   1
  0.10178309E+01  0.10925524E+00  0.10398763E+01  0.20438288E+00  0.10000000E+00    1    0
 VARIABLES= X1,X2,Y1,Y2,R,ID,RK
ZONE T="  100" 
SOLUTIONTIME=     0.99000000,STRANDID=   1
  0.10386284E+01  0.11138157E+00  0.10398763E+01  0.82498769E-02  0.10000000E+00    1    0
 VARIABLES= X1,X2,Y1,Y2,R,ID,RK
ZONE T="  102" 
SOLUTIONTIME=     1.01000000,STRANDID=   1
  0.10594259E+01  0.10958524E+00  0.10398763E+01 -0.18788312E+00  0.10000000E+00    1    0
 VARIABLES= X1,X2,Y1,Y2,R,ID,RK
ZONE T="  104" 
SOLUTIONTIME=     1.03000000,STRANDID=   1
  0.10802234E+01  0.10386624E+00  0.10398763E+01 -0.38401612E+00  0.10000000E+00    1    0
 VARIABLES= X1,X2,Y1,Y2,R,ID,RK
ZONE T="  106" 
SOLUTIONTIME=     1.05000000,STRANDID=   1
  0.11004663E+01  0.10564730E+00  0.10029017E+01  0.18136496E+00  0.10000000E+00    1    0
 VARIABLES= X1,X2,Y1,Y2,R,ID,RK
ZONE T="  108" 
SOLUTIONTIME=     1.07000000,STRANDID=   1
  0.11205244E+01  0.10731327E+00  0.10029017E+01 -0.14768042E-01  0.10000000E+00    1    0
 VARIABLES= X1,X2,Y1,Y2,R,ID,RK
ZONE T="  110" 
SOLUTIONTIME=     1.09000000,STRANDID=   1
  0.11405824E+01  0.10505658E+00  0.10029017E+01 -0.21090104E+00  0.10000000E+00    1    0
 VARIABLES= X1,X2,Y1,Y2,R,ID,RK
ZONE T="  112" 
SOLUTIONTIME=     1.11000000,STRANDID=   1
  0.11611009E+01  0.10193397E+00  0.10949929E+01  0.20431480E+00  0.10000000E+00    1    0
 VARIABLES= X1,X2,Y1,Y2,R,ID,RK
ZONE T="  114" 
SOLUTIONTIME=     1.13000000,STRANDID=   1
  0.11830008E+01  0.10405894E+00  0.10949929E+01  0.81818027E-02  0.10000000E+00    1    0
 VARIABLES= X1,X2,Y1,Y2,R,ID,RK
ZONE T="  116" 
SOLUTIONTIME=     1.15000000,STRANDID=   1
  0.12049006E+01  0.10226125E+00  0.10949929E+01 -0.18795120E+00  0.10000000E+00    1    0
 VARIABLES= X1,X2,Y1,Y2,R,ID,RK
ZONE T="  118" 
SOLUTIONTIME=     1.17000000,STRANDID=   1
  0.12266799E+01  0.99286839E-01  0.10708680E+01  0.16510516E+00  0.10000000E+00    1    0
 VARIABLES= X1,X2,Y1,Y2,R,ID,RK
ZONE T="  120" 
SOLUTIONTIME=     1.19000000,STRANDID=   1
  0.12480972E+01  0.10062761E+00  0.10708680E+01 -0.31027838E-01  0.10000000E+00    1    0
 VARIABLES= X1,X2,Y1,Y2,R,ID,RK
ZONE T="  122" 
SOLUTIONTIME=     1.21000000,STRANDID=   1
  0.12697336E+01  0.99461322E-01  0.11007405E+01 -0.34376736E-01  0.10000000E+00    1    0
 VARIABLES= X1,X2,Y1,Y2,R,ID,RK
ZONE T="  124" 
SOLUTIONTIME=     1.23000000,STRANDID=   1
  0.12916860E+01  0.98235301E-01  0.10921681E+01 -0.34775696E-01  0.10000000E+00    1    0
 VARIABLES= X1,X2,Y1,Y2,R,ID,RK
ZONE T="  126" 
SOLUTIONTIME=     1.25000000,STRANDID=   1
  0.13136658E+01  0.96996787E-01  0.11053107E+01 -0.37433045E-01  0.10000000E+00    1    0
 VARIABLES= X1,X2,Y1,Y2,R,ID,RK
ZONE T="  128" 
SOLUTIONTIME=     1.27000000,STRANDID=   1
  0.13358300E+01  0.95719374E-01  0.11133007E+01 -0.39291894E-01  0.10000000E+00    1    0
 VARIABLES= X1,X2,Y1,Y2,R,ID,RK
ZONE T="  130" 
SOLUTIONTIME=     1.29000000,STRANDID=   1
  0.13581553E+01  0.94405623E-01  0.11214533E+01 -0.41254418E-01  0.10000000E+00    1    0
 VARIABLES= X1,X2,Y1,Y2,R,ID,RK
ZONE T="  132" 
SOLUTIONTIME=     1.31000000,STRANDID=   1
  0.13806451E+01  0.93053448E-01  0.11297768E+01 -0.43330336E-01  0.10000000E+00    1    0
 VARIABLES= X1,X2,Y1,Y2,R,ID,RK
ZONE T="  134" 
SOLUTIONTIME=     1.33000000,STRANDID=   1
  0.14033027E+01  0.91660564E-01  0.11382804E+01 -0.45530684E-01  0.10000000E+00    1    0
 VARIABLES= X1,X2,Y1,Y2,R,ID,RK
ZONE T="  136" 
SOLUTIONTIME=     1.35000000,STRANDID=   1
  0.14261319E+01  0.90224459E-01  0.11469743E+01 -0.47868066E-01  0.10000000E+00    1    0
 VARIABLES= X1,X2,Y1,Y2,R,ID,RK
ZONE T="  138" 
SOLUTIONTIME=     1.37000000,STRANDID=   1
  0.14491366E+01  0.88742355E-01  0.11558693E+01 -0.50356942E-01  0.10000000E+00    1    0
 VARIABLES= X1,X2,Y1,Y2,R,ID,RK
ZONE T="  140" 
SOLUTIONTIME=     1.39000000,STRANDID=   1
  0.14723208E+01  0.87211177E-01  0.11649776E+01 -0.53013997E-01  0.10000000E+00    1    0
 VARIABLES= X1,X2,Y1,Y2,R,ID,RK
ZONE T="  142" 
SOLUTIONTIME=     1.41000000,STRANDID=   1
  0.14956891E+01  0.85627498E-01  0.11743124E+01 -0.55858606E-01  0.10000000E+00    1    0
 VARIABLES= X1,X2,Y1,Y2,R,ID,RK
ZONE T="  144" 
SOLUTIONTIME=     1.43000000,STRANDID=   1
  0.15192459E+01  0.83987484E-01  0.11838885E+01 -0.58913412E-01  0.10000000E+00    1    0
 VARIABLES= X1,X2,Y1,Y2,R,ID,RK
ZONE T="  146" 
SOLUTIONTIME=     1.45000000,STRANDID=   1
  0.15429964E+01  0.82286825E-01  0.11937222E+01 -0.62205073E-01  0.10000000E+00    1    0
 VARIABLES= X1,X2,Y1,Y2,R,ID,RK
ZONE T="  148" 
SOLUTIONTIME=     1.47000000,STRANDID=   1
  0.15669457E+01  0.80520644E-01  0.12038318E+01 -0.65765224E-01  0.10000000E+00    1    0
 VARIABLES= X1,X2,Y1,Y2,R,ID,RK
ZONE T="  150" 
SOLUTIONTIME=     1.49000000,STRANDID=   1
  0.15910995E+01  0.78683390E-01  0.12142377E+01 -0.69631737E-01  0.10000000E+00    1    0
 VARIABLES= X1,X2,Y1,Y2,R,ID,RK
ZONE T="  152" 
SOLUTIONTIME=     1.51000000,STRANDID=   1
  0.16154641E+01  0.76768701E-01  0.12249627E+01 -0.73850396E-01  0.10000000E+00    1    0
 VARIABLES= X1,X2,Y1,Y2,R,ID,RK
ZONE T="  154" 
SOLUTIONTIME=     1.53000000,STRANDID=   1
  0.16400459E+01  0.74769226E-01  0.12360329E+01 -0.78477153E-01  0.10000000E+00    1    0
 VARIABLES= X1,X2,Y1,Y2,R,ID,RK
ZONE T="  156" 
SOLUTIONTIME=     1.55000000,STRANDID=   1
  0.16648521E+01  0.72676399E-01  0.12474776E+01 -0.83581221E-01  0.10000000E+00    1    0
 VARIABLES= X1,X2,Y1,Y2,R,ID,RK
ZONE T="  158" 
SOLUTIONTIME=     1.57000000,STRANDID=   1
  0.16898905E+01  0.70480138E-01  0.12593303E+01 -0.89249406E-01  0.10000000E+00    1    0
 VARIABLES= X1,X2,Y1,Y2,R,ID,RK
ZONE T="  160" 
SOLUTIONTIME=     1.59000000,STRANDID=   1
  0.17151695E+01  0.68168445E-01  0.12716293E+01 -0.95592290E-01  0.10000000E+00    1    0
 VARIABLES= X1,X2,Y1,Y2,R,ID,RK
ZONE T="  162" 
SOLUTIONTIME=     1.61000000,STRANDID=   1
  0.17406984E+01  0.65726851E-01  0.12844187E+01 -0.10275330E+00  0.10000000E+00    1    0
 VARIABLES= X1,X2,Y1,Y2,R,ID,RK
ZONE T="  164" 
SOLUTIONTIME=     1.63000000,STRANDID=   1
  0.17664874E+01  0.63137649E-01  0.12977489E+01 -0.11092236E+00  0.10000000E+00    1    0
 VARIABLES= X1,X2,Y1,Y2,R,ID,RK
ZONE T="  166" 
SOLUTIONTIME=     1.65000000,STRANDID=   1
  0.17925011E+01  0.60383797E-01  0.13023422E+01 -0.11935473E+00  0.10000000E+00    1    0
 VARIABLES= X1,X2,Y1,Y2,R,ID,RK
ZONE T="  168" 
SOLUTIONTIME=     1.67000000,STRANDID=   1
  0.18187861E+01  0.57448022E-01  0.13287577E+01 -0.13307562E+00  0.10000000E+00    1    0
 VARIABLES= X1,X2,Y1,Y2,R,ID,RK
ZONE T="  170" 
SOLUTIONTIME=     1.69000000,STRANDID=   1
  0.18454371E+01  0.54255149E-01  0.13421157E+01 -0.14525500E+00  0.10000000E+00    1    0
 VARIABLES= X1,X2,Y1,Y2,R,ID,RK
ZONE T="  172" 
SOLUTIONTIME=     1.71000000,STRANDID=   1
  0.18723821E+01  0.50786073E-01  0.13600884E+01 -0.16079201E+00  0.10000000E+00    1    0
 VARIABLES= X1,X2,Y1,Y2,R,ID,RK
ZONE T="  174" 
SOLUTIONTIME=     1.73000000,STRANDID=   1
  0.18996375E+01  0.46962383E-01  0.13674196E+01 -0.17903675E+00  0.10000000E+00    1    0
 VARIABLES= X1,X2,Y1,Y2,R,ID,RK
ZONE T="  176" 
SOLUTIONTIME=     1.75000000,STRANDID=   1
  0.19271928E+01  0.42708837E-01  0.13859592E+01 -0.20760248E+00  0.10000000E+00    1    0
 VARIABLES= X1,X2,Y1,Y2,R,ID,RK
ZONE T="  178" 
SOLUTIONTIME=     1.77000000,STRANDID=   1
  0.19551432E+01  0.37835949E-01  0.14072203E+01 -0.24733697E+00  0.10000000E+00    1    0
 VARIABLES= X1,X2,Y1,Y2,R,ID,RK
ZONE T="  180" 
SOLUTIONTIME=     1.79000000,STRANDID=   1
  0.19835341E+01  0.32039011E-01  0.14305180E+01 -0.30787072E+00  0.10000000E+00    1    0
 VARIABLES= X1,X2,Y1,Y2,R,ID,RK
ZONE T="  182" 
SOLUTIONTIME=     1.81000000,STRANDID=   1
  0.20122618E+01  0.24719039E-01  0.14450861E+01 -0.41045106E+00  0.10000000E+00    1    0
 VARIABLES= X1,X2,Y1,Y2,R,ID,RK
ZONE T="  184" 
SOLUTIONTIME=     1.83000000,STRANDID=   1
  0.20411635E+01  0.14548687E-01  0.14450861E+01 -0.60658406E+00  0.10000000E+00    1    0
 VARIABLES= X1,X2,Y1,Y2,R,ID,RK
ZONE T="  186" 
SOLUTIONTIME=     1.85000000,STRANDID=   1
  0.20700653E+01  0.45567592E-03  0.14450861E+01 -0.80271706E+00  0.10000000E+00    1    0
 VARIABLES= X1,X2,Y1,Y2,R,ID,RK
ZONE T="  188" 
SOLUTIONTIME=     1.87000000,STRANDID=   1
  0.20989670E+01 -0.17559995E-01  0.14450861E+01 -0.99885006E+00  0.10000000E+00    1    0
 VARIABLES= X1,X2,Y1,Y2,R,ID,RK
ZONE T="  190" 
SOLUTIONTIME=     1.89000000,STRANDID=   1
  0.21305951E+01 -0.32437749E-01  0.17125721E+01 -0.37923520E+00  0.10000000E+00    1    0
 VARIABLES= X1,X2,Y1,Y2,R,ID,RK
ZONE T="  192" 
SOLUTIONTIME=     1.91000000,STRANDID=   1
  0.21649815E+01 -0.41074753E-01  0.17395741E+01 -0.39356211E+00  0.10000000E+00    1    0
 VARIABLES= X1,X2,Y1,Y2,R,ID,RK
ZONE T="  194" 
SOLUTIONTIME=     1.93000000,STRANDID=   1
  0.22000383E+01 -0.48610961E-01  0.17680555E+01 -0.33206665E+00  0.10000000E+00    1    0
 VARIABLES= X1,X2,Y1,Y2,R,ID,RK
ZONE T="  196" 
SOLUTIONTIME=     1.95000000,STRANDID=   1
  0.22357162E+01 -0.55172219E-01  0.18156574E+01 -0.29854341E+00  0.10000000E+00    1    0
 VARIABLES= X1,X2,Y1,Y2,R,ID,RK
ZONE T="  198" 
SOLUTIONTIME=     1.97000000,STRANDID=   1
  0.22721533E+01 -0.61223104E-01  0.18299711E+01 -0.26968365E+00  0.10000000E+00    1    0
 VARIABLES= X1,X2,Y1,Y2,R,ID,RK
ZONE T="  200" 
SOLUTIONTIME=     1.99000000,STRANDID=   1
  0.23089140E+01 -0.66760404E-01  0.18544086E+01 -0.24999815E+00  0.10000000E+00    1    0
 VARIABLES= X1,X2,Y1,Y2,R,ID,RK
ZONE T="  202" 
SOLUTIONTIME=     2.01000000,STRANDID=   1
  0.23461359E+01 -0.71965958E-01  0.18753269E+01 -0.23413013E+00  0.10000000E+00    1    0
 VARIABLES= X1,X2,Y1,Y2,R,ID,RK
ZONE T="  204" 
SOLUTIONTIME=     2.03000000,STRANDID=   1
  0.23837669E+01 -0.76899670E-01  0.18958757E+01 -0.22125764E+00  0.10000000E+00    1    0
 VARIABLES= X1,X2,Y1,Y2,R,ID,RK
ZONE T="  206" 
SOLUTIONTIME=     2.05000000,STRANDID=   1
  0.24217899E+01 -0.81613469E-01  0.19137418E+01 -0.21024227E+00  0.10000000E+00    1    0
 VARIABLES= X1,X2,Y1,Y2,R,ID,RK
ZONE T="  208" 
SOLUTIONTIME=     2.07000000,STRANDID=   1
  0.24601674E+01 -0.86136628E-01  0.19319178E+01 -0.20095450E+00  0.10000000E+00    1    0
 VARIABLES= X1,X2,Y1,Y2,R,ID,RK
ZONE T="  210" 
SOLUTIONTIME=     2.09000000,STRANDID=   1
  0.24988933E+01 -0.90500628E-01  0.19477676E+01 -0.19269863E+00  0.10000000E+00    1    0
 VARIABLES= X1,X2,Y1,Y2,R,ID,RK
ZONE T="  212" 
SOLUTIONTIME=     2.11000000,STRANDID=   1
  0.25379366E+01 -0.94721267E-01  0.19643098E+01 -0.18557556E+00  0.10000000E+00    1    0
 VARIABLES= X1,X2,Y1,Y2,R,ID,RK
ZONE T="  214" 
SOLUTIONTIME=     2.13000000,STRANDID=   1
  0.25772976E+01 -0.98820073E-01  0.19786968E+01 -0.17906976E+00  0.10000000E+00    1    0
 VARIABLES= X1,X2,Y1,Y2,R,ID,RK
ZONE T="  216" 
SOLUTIONTIME=     2.15000000,STRANDID=   1
  0.26169490E+01 -0.10280590E+00  0.19940281E+01 -0.17337521E+00  0.10000000E+00    1    0
 VARIABLES= X1,X2,Y1,Y2,R,ID,RK
ZONE T="  218" 
SOLUTIONTIME=     2.17000000,STRANDID=   1
  0.26568295E+01 -0.10823473E+00  0.19940281E+01 -0.36950821E+00  0.10000000E+00    1    0
 VARIABLES= X1,X2,Y1,Y2,R,ID,RK
ZONE T="  220" 
SOLUTIONTIME=     2.19000000,STRANDID=   1
  0.26967101E+01 -0.11758622E+00  0.19940281E+01 -0.56564121E+00  0.10000000E+00    1    0
 VARIABLES= X1,X2,Y1,Y2,R,ID,RK
ZONE T="  222" 
SOLUTIONTIME=     2.21000000,STRANDID=   1
  0.27365907E+01 -0.13086038E+00  0.19940281E+01 -0.76177421E+00  0.10000000E+00    1    0
 VARIABLES= X1,X2,Y1,Y2,R,ID,RK
ZONE T="  224" 
SOLUTIONTIME=     2.23000000,STRANDID=   1
  0.27764712E+01 -0.14805719E+00  0.19940281E+01 -0.95790721E+00  0.10000000E+00    1    0
 VARIABLES= X1,X2,Y1,Y2,R,ID,RK
ZONE T="  226" 
SOLUTIONTIME=     2.25000000,STRANDID=   1
  0.28163518E+01 -0.16917667E+00  0.19940281E+01 -0.11540402E+01  0.10000000E+00    1    0
 VARIABLES= X1,X2,Y1,Y2,R,ID,RK
ZONE T="  228" 
SOLUTIONTIME=     2.27000000,STRANDID=   1
  0.28562323E+01 -0.19421880E+00  0.19940281E+01 -0.13501732E+01  0.10000000E+00    1    0
 VARIABLES= X1,X2,Y1,Y2,R,ID,RK
ZONE T="  230" 
SOLUTIONTIME=     2.29000000,STRANDID=   1
  0.28961129E+01 -0.22367393E+00  0.19940281E+01 -0.15463062E+01  0.10000000E+00    1    0
 VARIABLES= X1,X2,Y1,Y2,R,ID,RK
ZONE T="  232" 
SOLUTIONTIME=     2.31000000,STRANDID=   1
  0.29359935E+01 -0.25754205E+00  0.19940281E+01 -0.17424392E+01  0.10000000E+00    1    0
 VARIABLES= X1,X2,Y1,Y2,R,ID,RK
ZONE T="  234" 
SOLUTIONTIME=     2.33000000,STRANDID=   1
  0.29758740E+01 -0.29533283E+00  0.19940281E+01 -0.19385722E+01  0.10000000E+00    1    0
 VARIABLES= X1,X2,Y1,Y2,R,ID,RK
ZONE T="  236" 
SOLUTIONTIME=     2.35000000,STRANDID=   1
  0.30157546E+01 -0.33704626E+00  0.19940281E+01 -0.21347052E+01  0.10000000E+00    1    0
 VARIABLES= X1,X2,Y1,Y2,R,ID,RK
ZONE T="  238" 
SOLUTIONTIME=     2.37000000,STRANDID=   1
  0.30556352E+01 -0.38268236E+00  0.19940281E+01 -0.23308382E+01  0.10000000E+00    1    0
 VARIABLES= X1,X2,Y1,Y2,R,ID,RK
ZONE T="  240" 
SOLUTIONTIME=     2.39000000,STRANDID=   1
  0.30955157E+01 -0.43224112E+00  0.19940281E+01 -0.25269712E+01  0.10000000E+00    1    0
 VARIABLES= X1,X2,Y1,Y2,R,ID,RK
ZONE T="  242" 
SOLUTIONTIME=     2.41000000,STRANDID=   1
  0.31353963E+01 -0.48572254E+00  0.19940281E+01 -0.27231042E+01  0.10000000E+00    1    0
 VARIABLES= X1,X2,Y1,Y2,R,ID,RK
ZONE T="  244" 
SOLUTIONTIME=     2.43000000,STRANDID=   1
  0.31752768E+01 -0.54312662E+00  0.19940281E+01 -0.29192372E+01  0.10000000E+00    1    0
 VARIABLES= X1,X2,Y1,Y2,R,ID,RK
ZONE T="  246" 
SOLUTIONTIME=     2.45000000,STRANDID=   1
  0.32151574E+01 -0.60445336E+00  0.19940281E+01 -0.31153702E+01  0.10000000E+00    1    0
 VARIABLES= X1,X2,Y1,Y2,R,ID,RK
ZONE T="  248" 
SOLUTIONTIME=     2.47000000,STRANDID=   1
  0.32550380E+01 -0.66970276E+00  0.19940281E+01 -0.33115032E+01  0.10000000E+00    1    0
 VARIABLES= X1,X2,Y1,Y2,R,ID,RK
ZONE T="  250" 
SOLUTIONTIME=     2.49000000,STRANDID=   1
  0.32949185E+01 -0.73887482E+00  0.19940281E+01 -0.35076362E+01  0.10000000E+00    1    0
 VARIABLES= X1,X2,Y1,Y2,R,ID,RK
ZONE T="  252" 
SOLUTIONTIME=     2.51000000,STRANDID=   1
  0.33347991E+01 -0.81196954E+00  0.19940281E+01 -0.37037692E+01  0.10000000E+00    1    0
 VARIABLES= X1,X2,Y1,Y2,R,ID,RK
ZONE T="  254" 
SOLUTIONTIME=     2.53000000,STRANDID=   1
  0.33746797E+01 -0.88898692E+00  0.19940281E+01 -0.38999022E+01  0.10000000E+00    1    0
 VARIABLES= X1,X2,Y1,Y2,R,ID,RK
ZONE T="  256" 
SOLUTIONTIME=     2.55000000,STRANDID=   1
  0.34145602E+01 -0.96992696E+00  0.19940281E+01 -0.40960352E+01  0.10000000E+00    1    0
 VARIABLES= X1,X2,Y1,Y2,R,ID,RK
ZONE T="  258" 
SOLUTIONTIME=     2.57000000,STRANDID=   1
  0.34544408E+01 -0.10547897E+01  0.19940281E+01 -0.42921682E+01  0.10000000E+00    1    0
 VARIABLES= X1,X2,Y1,Y2,R,ID,RK
ZONE T="  260" 
SOLUTIONTIME=     2.59000000,STRANDID=   1
  0.34943213E+01 -0.11435750E+01  0.19940281E+01 -0.44883012E+01  0.10000000E+00    1    0
 VARIABLES= X1,X2,Y1,Y2,R,ID,RK
ZONE T="  262" 
SOLUTIONTIME=     2.61000000,STRANDID=   1
  0.35342019E+01 -0.12362830E+01  0.19940281E+01 -0.46844342E+01  0.10000000E+00    1    0
 VARIABLES= X1,X2,Y1,Y2,R,ID,RK
ZONE T="  264" 
SOLUTIONTIME=     2.63000000,STRANDID=   1
  0.35740825E+01 -0.13329137E+01  0.19940281E+01 -0.48805672E+01  0.10000000E+00    1    0
 VARIABLES= X1,X2,Y1,Y2,R,ID,RK
ZONE T="  266" 
SOLUTIONTIME=     2.65000000,STRANDID=   1
  0.36139630E+01 -0.14334671E+01  0.19940281E+01 -0.50767002E+01  0.10000000E+00    1    0
 VARIABLES= X1,X2,Y1,Y2,R,ID,RK
ZONE T="  268" 
SOLUTIONTIME=     2.67000000,STRANDID=   1
  0.36538436E+01 -0.15379431E+01  0.19940281E+01 -0.52728332E+01  0.10000000E+00    1    0
 VARIABLES= X1,X2,Y1,Y2,R,ID,RK
ZONE T="  270" 
SOLUTIONTIME=     2.69000000,STRANDID=   1
  0.36937241E+01 -0.16463417E+01  0.19940281E+01 -0.54689662E+01  0.10000000E+00    1    0
 VARIABLES= X1,X2,Y1,Y2,R,ID,RK
ZONE T="  272" 
SOLUTIONTIME=     2.71000000,STRANDID=   1
  0.37336047E+01 -0.17586630E+01  0.19940281E+01 -0.56650992E+01  0.10000000E+00    1    0
 VARIABLES= X1,X2,Y1,Y2,R,ID,RK
ZONE T="  274" 
SOLUTIONTIME=     2.73000000,STRANDID=   1
  0.37734853E+01 -0.18749070E+01  0.19940281E+01 -0.58612322E+01  0.10000000E+00    1    0
 VARIABLES= X1,X2,Y1,Y2,R,ID,RK
ZONE T="  276" 
SOLUTIONTIME=     2.75000000,STRANDID=   1
  0.38133658E+01 -0.19950736E+01  0.19940281E+01 -0.60573652E+01  0.10000000E+00    1    0
 VARIABLES= X1,X2,Y1,Y2,R,ID,RK
ZONE T="  278" 
SOLUTIONTIME=     2.77000000,STRANDID=   1
  0.38532464E+01 -0.21191629E+01  0.19940281E+01 -0.62534982E+01  0.10000000E+00    1    0
 VARIABLES= X1,X2,Y1,Y2,R,ID,RK
ZONE T="  280" 
SOLUTIONTIME=     2.79000000,STRANDID=   1
  0.38931270E+01 -0.22471749E+01  0.19940281E+01 -0.64496312E+01  0.10000000E+00    1    0
 VARIABLES= X1,X2,Y1,Y2,R,ID,RK
ZONE T="  282" 
SOLUTIONTIME=     2.81000000,STRANDID=   1
  0.39330075E+01 -0.23791095E+01  0.19940281E+01 -0.66457642E+01  0.10000000E+00    1    0
 VARIABLES= X1,X2,Y1,Y2,R,ID,RK
ZONE T="  284" 
SOLUTIONTIME=     2.83000000,STRANDID=   1
  0.39728881E+01 -0.25149668E+01  0.19940281E+01 -0.68418972E+01  0.10000000E+00    1    0
 VARIABLES= X1,X2,Y1,Y2,R,ID,RK
ZONE T="  286" 
SOLUTIONTIME=     2.85000000,STRANDID=   1
  0.40127686E+01 -0.26547467E+01  0.19940281E+01 -0.70380302E+01  0.10000000E+00    1    0
 VARIABLES= X1,X2,Y1,Y2,R,ID,RK
ZONE T="  288" 
SOLUTIONTIME=     2.87000000,STRANDID=   1
  0.40526492E+01 -0.27984493E+01  0.19940281E+01 -0.72341632E+01  0.10000000E+00    1    0
 VARIABLES= X1,X2,Y1,Y2,R,ID,RK
ZONE T="  290" 
SOLUTIONTIME=     2.89000000,STRANDID=   1
  0.40925298E+01 -0.29460746E+01  0.19940281E+01 -0.74302962E+01  0.10000000E+00    1    0
 VARIABLES= X1,X2,Y1,Y2,R,ID,RK
ZONE T="  292" 
SOLUTIONTIME=     2.91000000,STRANDID=   1
  0.41324103E+01 -0.30976225E+01  0.19940281E+01 -0.76264292E+01  0.10000000E+00    1    0
 VARIABLES= X1,X2,Y1,Y2,R,ID,RK
ZONE T="  294" 
SOLUTIONTIME=     2.93000000,STRANDID=   1
  0.41722909E+01 -0.32530931E+01  0.19940281E+01 -0.78225622E+01  0.10000000E+00    1    0
 VARIABLES= X1,X2,Y1,Y2,R,ID,RK
ZONE T="  296" 
SOLUTIONTIME=     2.95000000,STRANDID=   1
  0.42121715E+01 -0.34124863E+01  0.19940281E+01 -0.80186952E+01  0.10000000E+00    1    0
 VARIABLES= X1,X2,Y1,Y2,R,ID,RK
ZONE T="  298" 
SOLUTIONTIME=     2.97000000,STRANDID=   1
  0.42520520E+01 -0.35758022E+01  0.19940281E+01 -0.82148282E+01  0.10000000E+00    1    0
 VARIABLES= X1,X2,Y1,Y2,R,ID,RK
ZONE T="  300" 
SOLUTIONTIME=     2.99000000,STRANDID=   1
  0.42919326E+01 -0.37430408E+01  0.19940281E+01 -0.84109612E+01  0.10000000E+00    1    0
 VARIABLES= X1,X2,Y1,Y2,R,ID,RK
ZONE T="  302" 
SOLUTIONTIME=     3.01000000,STRANDID=   1
  0.43318131E+01 -0.39142020E+01  0.19940281E+01 -0.86070942E+01  0.10000000E+00    1    0
 VARIABLES= X1,X2,Y1,Y2,R,ID,RK
ZONE T="  304" 
SOLUTIONTIME=     3.03000000,STRANDID=   1
  0.43716937E+01 -0.40892859E+01  0.19940281E+01 -0.88032272E+01  0.10000000E+00    1    0
 VARIABLES= X1,X2,Y1,Y2,R,ID,RK
ZONE T="  306" 
SOLUTIONTIME=     3.05000000,STRANDID=   1
  0.44115743E+01 -0.42682924E+01  0.19940281E+01 -0.89993602E+01  0.10000000E+00    1    0
 VARIABLES= X1,X2,Y1,Y2,R,ID,RK
ZONE T="  308" 
SOLUTIONTIME=     3.07000000,STRANDID=   1
  0.44514548E+01 -0.44512216E+01  0.19940281E+01 -0.91954932E+01  0.10000000E+00    1    0
 VARIABLES= X1,X2,Y1,Y2,R,ID,RK
ZONE T="  310" 
SOLUTIONTIME=     3.09000000,STRANDID=   1
  0.44913354E+01 -0.46380735E+01  0.19940281E+01 -0.93916262E+01  0.10000000E+00    1    0
 VARIABLES= X1,X2,Y1,Y2,R,ID,RK
ZONE T="  312" 
SOLUTIONTIME=     3.11000000,STRANDID=   1
  0.45312159E+01 -0.48288480E+01  0.19940281E+01 -0.95877592E+01  0.10000000E+00    1    0
 VARIABLES= X1,X2,Y1,Y2,R,ID,RK
ZONE T="  314" 
SOLUTIONTIME=     3.13000000,STRANDID=   1
  0.45710965E+01 -0.50235452E+01  0.19940281E+01 -0.97838922E+01  0.10000000E+00    1    0
 VARIABLES= X1,X2,Y1,Y2,R,ID,RK
ZONE T="  316" 
SOLUTIONTIME=     3.15000000,STRANDID=   1
  0.46109771E+01 -0.52221650E+01  0.19940281E+01 -0.99800252E+01  0.10000000E+00    1    0
 VARIABLES= X1,X2,Y1,Y2,R,ID,RK
ZONE T="  318" 
SOLUTIONTIME=     3.17000000,STRANDID=   1
  0.46508576E+01 -0.54247075E+01  0.19940281E+01 -0.10176158E+02  0.10000000E+00    1    0
 VARIABLES= X1,X2,Y1,Y2,R,ID,RK
ZONE T="  320" 
SOLUTIONTIME=     3.19000000,STRANDID=   1
  0.46907382E+01 -0.56311727E+01  0.19940281E+01 -0.10372291E+02  0.10000000E+00    1    0
 VARIABLES= X1,X2,Y1,Y2,R,ID,RK
ZONE T="  322" 
SOLUTIONTIME=     3.21000000,STRANDID=   1
  0.47306188E+01 -0.58415605E+01  0.19940281E+01 -0.10568424E+02  0.10000000E+00    1    0
 VARIABLES= X1,X2,Y1,Y2,R,ID,RK
ZONE T="  324" 
SOLUTIONTIME=     3.23000000,STRANDID=   1
  0.47704993E+01 -0.60558710E+01  0.19940281E+01 -0.10764557E+02  0.10000000E+00    1    0
 VARIABLES= X1,X2,Y1,Y2,R,ID,RK
ZONE T="  326" 
SOLUTIONTIME=     3.25000000,STRANDID=   1
  0.48103799E+01 -0.62741041E+01  0.19940281E+01 -0.10960690E+02  0.10000000E+00    1    0
 VARIABLES= X1,X2,Y1,Y2,R,ID,RK
ZONE T="  328" 
SOLUTIONTIME=     3.27000000,STRANDID=   1
  0.48502604E+01 -0.64962599E+01  0.19940281E+01 -0.11156823E+02  0.10000000E+00    1    0
 VARIABLES= X1,X2,Y1,Y2,R,ID,RK
ZONE T="  330" 
SOLUTIONTIME=     3.29000000,STRANDID=   1