 VARIABLES= X1,X2,Y1,Y2,R,ID,RK
ZONE T="    2" 
SOLUTIONTIME=     0.00100000,STRANDID=   1
  0.76186219E+00  0.46545358E+00 -0.14920077E+00  0.00000000E+00  0.20000000E-01    1    0
  0.23813781E+00  0.46545358E+00  0.14920077E+00  0.00000000E+00  0.20000000E-01    2    0
 VARIABLES= X1,X2,Y1,Y2,R,ID,RK
ZONE T="    4" 
SOLUTIONTIME=     0.00300000,STRANDID=   1
  0.76156378E+00  0.46545358E+00 -0.14920077E+00  0.00000000E+00  0.20000000E-01    1    0
  0.23843622E+00  0.46545358E+00  0.14920077E+00  0.00000000E+00  0.20000000E-01    2    0
 VARIABLES= X1,X2,Y1,Y2,R,ID,RK
ZONE T="    6" 
SOLUTIONTIME=     0.00500000,STRANDID=   1
  0.76126538E+00  0.46545358E+00 -0.14920077E+00  0.00000000E+00  0.20000000E-01    1    0
  0.23873462E+00  0.46545358E+00  0.14920077E+00  0.00000000E+00  0.20000000E-01    2    0
 VARIABLES= X1,X2,Y1,Y2,R,ID,RK
ZONE T="    8" 
SOLUTIONTIME=     0.00700000,STRANDID=   1
  0.76096698E+00  0.46545358E+00 -0.14920077E+00  0.00000000E+00  0.20000000E-01    1    0
  0.23903302E+00  0.46545358E+00  0.14920077E+00  0.00000000E+00  0.20000000E-01    2    0
 VARIABLES= X1,X2,Y1,Y2,R,ID,RK
ZONE T="   10" 
SOLUTIONTIME=     0.00900000,STRANDID=   1
  0.76066858E+00  0.46545358E+00 -0.14920077E+00  0.00000000E+00  0.20000000E-01    1    0
  0.23933142E+00  0.46545358E+00  0.14920077E+00  0.00000000E+00  0.20000000E-01    2    0
 VARIABLES= X1,X2,Y1,Y2,R,ID,RK
ZONE T="   12" 
SOLUTIONTIME=     0.01100000,STRANDID=   1
  0.76037018E+00  0.46545358E+00 -0.14920077E+00  0.00000000E+00  0.20000000E-01    1    0
  0.23962982E+00  0.46545358E+00  0.14920077E+00  0.00000000E+00  0.20000000E-01    2    0
 VARIABLES= X1,X2,Y1,Y2,R,ID,RK
ZONE T="   14" 
SOLUTIONTIME=     0.01300000,STRANDID=   1
  0.76007178E+00  0.46545358E+00 -0.14920077E+00  0.00000000E+00  0.20000000E-01    1    0
  0.23992822E+00  0.46545358E+00  0.14920077E+00  0.00000000E+00  0.20000000E-01    2    0
 VARIABLES= X1,X2,Y1,Y2,R,ID,RK
ZONE T="   16" 
SOLUTIONTIME=     0.01500000,STRANDID=   1
  0.75977338E+00  0.46545358E+00 -0.14920077E+00  0.00000000E+00  0.20000000E-01    1    0
  0.24022662E+00  0.46545358E+00  0.14920077E+00  0.00000000E+00  0.20000000E-01    2    0
 VARIABLES= X1,X2,Y1,Y2,R,ID,RK
ZONE T="   18" 
SOLUTIONTIME=     0.01700000,STRANDID=   1
  0.75947497E+00  0.46545358E+00 -0.14920077E+00  0.00000000E+00  0.20000000E-01    1    0
  0.24052503E+00  0.46545358E+00  0.14920077E+00  0.00000000E+00  0.20000000E-01    2    0
 VARIABLES= X1,X2,Y1,Y2,R,ID,RK
ZONE T="   20" 
SOLUTIONTIME=     0.01900000,STRANDID=   1
  0.75917657E+00  0.46545358E+00 -0.14920077E+00  0.00000000E+00  0.20000000E-01    1    0
  0.24082343E+00  0.46545358E+00  0.14920077E+00  0.00000000E+00  0.20000000E-01    2    0
 VARIABLES= X1,X2,Y1,Y2,R,ID,RK
ZONE T="   22" 
SOLUTIONTIME=     0.02100000,STRANDID=   1
  0.75887817E+00  0.46545358E+00 -0.14920077E+00  0.00000000E+00  0.20000000E-01    1    0
  0.24112183E+00  0.46545358E+00  0.14920077E+00  0.00000000E+00  0.20000000E-01    2    0
 VARIABLES= X1,X2,Y1,Y2,R,ID,RK
ZONE T="   24" 
SOLUTIONTIME=     0.02300000,STRANDID=   1
  0.75857977E+00  0.46545358E+00 -0.14920077E+00  0.00000000E+00  0.20000000E-01    1    0
  0.24142023E+00  0.46545358E+00  0.14920077E+00  0.00000000E+00  0.20000000E-01    2    0
 VARIABLES= X1,X2,Y1,Y2,R,ID,RK
ZONE T="   26" 
SOLUTIONTIME=     0.02500000,STRANDID=   1
  0.75828137E+00  0.46545358E+00 -0.14920077E+00  0.00000000E+00  0.20000000E-01    1    0
  0.24171863E+00  0.46545358E+00  0.14920077E+00  0.00000000E+00  0.20000000E-01    2    0
 VARIABLES= X1,X2,Y1,Y2,R,ID,RK
ZONE T="   28" 
SOLUTIONTIME=     0.02700000,STRANDID=   1
  0.75798297E+00  0.46545358E+00 -0.14920077E+00  0.00000000E+00  0.20000000E-01    1    0
  0.24201703E+00  0.46545358E+00  0.14920077E+00  0.00000000E+00  0.20000000E-01    2    0
 VARIABLES= X1,X2,Y1,Y2,R,ID,RK
ZONE T="   30" 
SOLUTIONTIME=     0.02900000,STRANDID=   1
  0.75768456E+00  0.46545358E+00 -0.14920077E+00  0.00000000E+00  0.20000000E-01    1    0
  0.24231544E+00  0.46545358E+00  0.14920077E+00  0.00000000E+00  0.20000000E-01    2    0
 VARIABLES= X1,X2,Y1,Y2,R,ID,RK
ZONE T="   32" 
SOLUTIONTIME=     0.03100000,STRANDID=   1
  0.75738616E+00  0.46545358E+00 -0.14920077E+00  0.00000000E+00  0.20000000E-01    1    0
  0.24261384E+00  0.46545358E+00  0.14920077E+00  0.00000000E+00  0.20000000E-01    2    0
 VARIABLES= X1,X2,Y1,Y2,R,ID,RK
ZONE T="   34" 
SOLUTIONTIME=     0.03300000,STRANDID=   1
  0.75708776E+00  0.46545358E+00 -0.14920077E+00  0.00000000E+00  0.20000000E-01    1    0
  0.24291224E+00  0.46545358E+00  0.14920077E+00  0.00000000E+00  0.20000000E-01    2    0
 VARIABLES= X1,X2,Y1,Y2,R,ID,RK
ZONE T="   36" 
SOLUTIONTIME=     0.03500000,STRANDID=   1
  0.75678936E+00  0.46545358E+00 -0.14920077E+00  0.00000000E+00  0.20000000E-01    1    0
  0.24321064E+00  0.46545358E+00  0.14920077E+00  0.00000000E+00  0.20000000E-01    2    0
 VARIABLES= X1,X2,Y1,Y2,R,ID,RK
ZONE T="   38" 
SOLUTIONTIME=     0.03700000,STRANDID=   1
  0.75649096E+00  0.46545358E+00 -0.14920077E+00  0.00000000E+00  0.20000000E-01    1    0
  0.24350904E+00  0.46545358E+00  0.14920077E+00  0.00000000E+00  0.20000000E-01    2    0
 VARIABLES= X1,X2,Y1,Y2,R,ID,RK
ZONE T="   40" 
SOLUTIONTIME=     0.03900000,STRANDID=   1
  0.75619256E+00  0.46545358E+00 -0.14920077E+00  0.00000000E+00  0.20000000E-01    1    0
  0.24380744E+00  0.46545358E+00  0.14920077E+00  0.00000000E+00  0.20000000E-01    2    0
 VARIABLES= X1,X2,Y1,Y2,R,ID,RK
ZONE T="   42" 
SOLUTIONTIME=     0.04100000,STRANDID=   1
  0.75589416E+00  0.46545358E+00 -0.14920077E+00  0.00000000E+00  0.20000000E-01    1    0
  0.24410584E+00  0.46545358E+00  0.14920077E+00  0.00000000E+00  0.20000000E-01    2    0
 VARIABLES= X1,X2,Y1,Y2,R,ID,RK
ZONE T="   44" 
SOLUTIONTIME=     0.04300000,STRANDID=   1
  0.75559575E+00  0.46545358E+00 -0.14920077E+00  0.00000000E+00  0.20000000E-01    1    0
  0.24440425E+00  0.46545358E+00  0.14920077E+00  0.00000000E+00  0.20000000E-01    2    0
 VARIABLES= X1,X2,Y1,Y2,R,ID,RK
ZONE T="   46" 
SOLUTIONTIME=     0.04500000,STRANDID=   1
  0.75529735E+00  0.46545358E+00 -0.14920077E+00  0.00000000E+00  0.20000000E-01    1    0
  0.24470265E+00  0.46545358E+00  0.14920077E+00  0.00000000E+00  0.20000000E-01    2    0
 VARIABLES= X1,X2,Y1,Y2,R,ID,RK
ZONE T="   48" 
SOLUTIONTIME=     0.04700000,STRANDID=   1
  0.75499895E+00  0.46545358E+00 -0.14920077E+00  0.00000000E+00  0.20000000E-01    1    0
  0.24500105E+00  0.46545358E+00  0.14920077E+00  0.00000000E+00  0.20000000E-01    2    0
 VARIABLES= X1,X2,Y1,Y2,R,ID,RK
ZONE T="   50" 
SOLUTIONTIME=     0.04900000,STRANDID=   1
  0.75470055E+00  0.46545358E+00 -0.14920077E+00  0.00000000E+00  0.20000000E-01    1    0
  0.24529945E+00  0.46545358E+00  0.14920077E+00  0.00000000E+00  0.20000000E-01    2    0
 VARIABLES= X1,X2,Y1,Y2,R,ID,RK
ZONE T="   52" 
SOLUTIONTIME=     0.05100000,STRANDID=   1
  0.75440215E+00  0.46545358E+00 -0.14920077E+00  0.00000000E+00  0.20000000E-01    1    0
  0.24559785E+00  0.46545358E+00  0.14920077E+00  0.00000000E+00  0.20000000E-01    2    0
 VARIABLES= X1,X2,Y1,Y2,R,ID,RK
ZONE T="   54" 
SOLUTIONTIME=     0.05300000,STRANDID=   1
  0.75410375E+00  0.46545358E+00 -0.14920077E+00  0.00000000E+00  0.20000000E-01    1    0
  0.24589625E+00  0.46545358E+00  0.14920077E+00  0.00000000E+00  0.20000000E-01    2    0
 VARIABLES= X1,X2,Y1,Y2,R,ID,RK
ZONE T="   56" 
SOLUTIONTIME=     0.05500000,STRANDID=   1
  0.75380534E+00  0.46545358E+00 -0.14920077E+00  0.00000000E+00  0.20000000E-01    1    0
  0.24619466E+00  0.46545358E+00  0.14920077E+00  0.00000000E+00  0.20000000E-01    2    0
 VARIABLES= X1,X2,Y1,Y2,R,ID,RK
ZONE T="   58" 
SOLUTIONTIME=     0.05700000,STRANDID=   1
  0.75350694E+00  0.46545358E+00 -0.14920077E+00  0.00000000E+00  0.20000000E-01    1    0
  0.24649306E+00  0.46545358E+00  0.14920077E+00  0.00000000E+00  0.20000000E-01    2    0
 VARIABLES= X1,X2,Y1,Y2,R,ID,RK
ZONE T="   60" 
SOLUTIONTIME=     0.05900000,STRANDID=   1
  0.75320854E+00  0.46545358E+00 -0.14920077E+00  0.00000000E+00  0.20000000E-01    1    0
  0.24679146E+00  0.46545358E+00  0.14920077E+00  0.00000000E+00  0.20000000E-01    2    0
 VARIABLES= X1,X2,Y1,Y2,R,ID,RK
ZONE T="   62" 
SOLUTIONTIME=     0.06100000,STRANDID=   1
  0.75291014E+00  0.46545358E+00 -0.14920077E+00  0.00000000E+00  0.20000000E-01    1    0
  0.24708986E+00  0.46545358E+00  0.14920077E+00  0.00000000E+00  0.20000000E-01    2    0
 VARIABLES= X1,X2,Y1,Y2,R,ID,RK
ZONE T="   64" 
SOLUTIONTIME=     0.06300000,STRANDID=   1
  0.75261174E+00  0.46545358E+00 -0.14920077E+00  0.00000000E+00  0.20000000E-01    1    0
  0.24738826E+00  0.46545358E+00  0.14920077E+00  0.00000000E+00  0.20000000E-01    2    0
 VARIABLES= X1,X2,Y1,Y2,R,ID,RK
ZONE T="   66" 
SOLUTIONTIME=     0.06500000,STRANDID=   1
  0.75231334E+00  0.46545358E+00 -0.14920077E+00  0.00000000E+00  0.20000000E-01    1    0
  0.24768666E+00  0.46545358E+00  0.14920077E+00  0.00000000E+00  0.20000000E-01    2    0
 VARIABLES= X1,X2,Y1,Y2,R,ID,RK
ZONE T="   68" 
SOLUTIONTIME=     0.06700000,STRANDID=   1
  0.75201494E+00  0.46545358E+00 -0.14920077E+00  0.00000000E+00  0.20000000E-01    1    0
  0.24798506E+00  0.46545358E+00  0.14920077E+00  0.00000000E+00  0.20000000E-01    2    0
 VARIABLES= X1,X2,Y1,Y2,R,ID,RK
ZONE T="   70" 
SOLUTIONTIME=     0.06900000,STRANDID=   1
  0.75171653E+00  0.46545358E+00 -0.14920077E+00  0.00000000E+00  0.20000000E-01    1    0
  0.24828347E+00  0.46545358E+00  0.14920077E+00  0.00000000E+00  0.20000000E-01    2    0
 VARIABLES= X1,X2,Y1,Y2,R,ID,RK
ZONE T="   72" 
SOLUTIONTIME=     0.07100000,STRANDID=   1
  0.75141813E+00  0.46545358E+00 -0.14920077E+00  0.00000000E+00  0.20000000E-01    1    0
  0.24858187E+00  0.46545358E+00  0.14920077E+00  0.00000000E+00  0.20000000E-01    2    0
 VARIABLES= X1,X2,Y1,Y2,R,ID,RK
ZONE T="   74" 
SOLUTIONTIME=     0.07300000,STRANDID=   1
  0.75111973E+00  0.46545358E+00 -0.14920077E+00  0.00000000E+00  0.20000000E-01    1    0
  0.24888027E+00  0.46545358E+00  0.14920077E+00  0.00000000E+00  0.20000000E-01    2    0
 VARIABLES= X1,X2,Y1,Y2,R,ID,RK
ZONE T="   76" 
SOLUTIONTIME=     0.07500000,STRANDID=   1
  0.75082133E+00  0.46545358E+00 -0.14920077E+00  0.00000000E+00  0.20000000E-01    1    0
  0.24917867E+00  0.46545358E+00  0.14920077E+00  0.00000000E+00  0.20000000E-01    2    0
 VARIABLES= X1,X2,Y1,Y2,R,ID,RK
ZONE T="   78" 
SOLUTIONTIME=     0.07700000,STRANDID=   1
  0.75052293E+00  0.46545358E+00 -0.14920077E+00  0.00000000E+00  0.20000000E-01    1    0
  0.24947707E+00  0.46545358E+00  0.14920077E+00  0.00000000E+00  0.20000000E-01    2    0
 VARIABLES= X1,X2,Y1,Y2,R,ID,RK
ZONE T="   80" 
SOLUTIONTIME=     0.07900000,STRANDID=   1
  0.75022453E+00  0.46545358E+00 -0.14920077E+00  0.00000000E+00  0.20000000E-01    1    0
  0.24977547E+00  0.46545358E+00  0.14920077E+00  0.00000000E+00  0.20000000E-01    2    0
 VARIABLES= X1,X2,Y1,Y2,R,ID,RK
ZONE T="   82" 
SOLUTIONTIME=     0.08100000,STRANDID=   1
  0.74992612E+00  0.46545358E+00 -0.14920077E+00  0.00000000E+00  0.20000000E-01    1    0
  0.25007388E+00  0.46545358E+00  0.14920077E+00  0.00000000E+00  0.20000000E-01    2    0
 VARIABLES= X1,X2,Y1,Y2,R,ID,RK
ZONE T="   84" 
SOLUTIONTIME=     0.08300000,STRANDID=   1
  0.74962772E+00  0.46545358E+00 -0.14920077E+00  0.00000000E+00  0.20000000E-01    1    0
  0.25037228E+00  0.46545358E+00  0.14920077E+00  0.00000000E+00  0.20000000E-01    2    0
 VARIABLES= X1,X2,Y1,Y2,R,ID,RK
ZONE T="   86" 
SOLUTIONTIME=     0.08500000,STRANDID=   1
  0.74932932E+00  0.46545358E+00 -0.14920077E+00  0.00000000E+00  0.20000000E-01    1    0
  0.25067068E+00  0.46545358E+00  0.14920077E+00  0.00000000E+00  0.20000000E-01    2    0
 VARIABLES= X1,X2,Y1,Y2,R,ID,RK
ZONE T="   88" 
SOLUTIONTIME=     0.08700000,STRANDID=   1
  0.74903092E+00  0.46545358E+00 -0.14920077E+00  0.00000000E+00  0.20000000E-01    1    0
  0.25096908E+00  0.46545358E+00  0.14920077E+00  0.00000000E+00  0.20000000E-01    2    0
 VARIABLES= X1,X2,Y1,Y2,R,ID,RK
ZONE T="   90" 
SOLUTIONTIME=     0.08900000,STRANDID=   1
  0.74873252E+00  0.46545358E+00 -0.14920077E+00  0.00000000E+00  0.20000000E-01    1    0
  0.25126748E+00  0.46545358E+00  0.14920077E+00  0.00000000E+00  0.20000000E-01    2    0
 VARIABLES= X1,X2,Y1,Y2,R,ID,RK
ZONE T="   92" 
SOLUTIONTIME=     0.09100000,STRANDID=   1
  0.74843412E+00  0.46545358E+00 -0.14920077E+00  0.00000000E+00  0.20000000E-01    1    0
  0.25156588E+00  0.46545358E+00  0.14920077E+00  0.00000000E+00  0.20000000E-01    2    0
 VARIABLES= X1,X2,Y1,Y2,R,ID,RK
ZONE T="   94" 
SOLUTIONTIME=     0.09300000,STRANDID=   1
  0.74813572E+00  0.46545358E+00 -0.14920077E+00  0.00000000E+00  0.20000000E-01    1    0
  0.25186428E+00  0.46545358E+00  0.14920077E+00  0.00000000E+00  0.20000000E-01    2    0
 VARIABLES= X1,X2,Y1,Y2,R,ID,RK
ZONE T="   96" 
SOLUTIONTIME=     0.09500000,STRANDID=   1
  0.74783731E+00  0.46545358E+00 -0.14920077E+00  0.00000000E+00  0.20000000E-01    1    0
  0.25216269E+00  0.46545358E+00  0.14920077E+00  0.00000000E+00  0.20000000E-01    2    0
 VARIABLES= X1,X2,Y1,Y2,R,ID,RK
ZONE T="   98" 
SOLUTIONTIME=     0.09700000,STRANDID=   1
  0.74753891E+00  0.46545358E+00 -0.14920077E+00  0.00000000E+00  0.20000000E-01    1    0
  0.25246109E+00  0.46545358E+00  0.14920077E+00  0.00000000E+00  0.20000000E-01    2    0
 VARIABLES= X1,X2,Y1,Y2,R,ID,RK
ZONE T="  100" 
SOLUTIONTIME=     0.09900000,STRANDID=   1
  0.74724051E+00  0.46545358E+00 -0.14920077E+00  0.00000000E+00  0.20000000E-01    1    0
  0.25275949E+00  0.46545358E+00  0.14920077E+00  0.00000000E+00  0.20000000E-01    2    0
 VARIABLES= X1,X2,Y1,Y2,R,ID,RK
ZONE T="  102" 
SOLUTIONTIME=     0.10100000,STRANDID=   1
  0.74694211E+00  0.46545358E+00 -0.14920077E+00  0.00000000E+00  0.20000000E-01    1    0
  0.25305789E+00  0.46545358E+00  0.14920077E+00  0.00000000E+00  0.20000000E-01    2    0
 VARIABLES= X1,X2,Y1,Y2,R,ID,RK
ZONE T="  104" 
SOLUTIONTIME=     0.10300000,STRANDID=   1
  0.74664371E+00  0.46545358E+00 -0.14920077E+00  0.00000000E+00  0.20000000E-01    1    0
  0.25335629E+00  0.46545358E+00  0.14920077E+00  0.00000000E+00  0.20000000E-01    2    0
 VARIABLES= X1,X2,Y1,Y2,R,ID,RK
ZONE T="  106" 
SOLUTIONTIME=     0.10500000,STRANDID=   1
  0.74634531E+00  0.46545358E+00 -0.14920077E+00  0.00000000E+00  0.20000000E-01    1    0
  0.25365469E+00  0.46545358E+00  0.14920077E+00  0.00000000E+00  0.20000000E-01    2    0
 VARIABLES= X1,X2,Y1,Y2,R,ID,RK
ZONE T="  108" 
SOLUTIONTIME=     0.10700000,STRANDID=   1
  0.74604691E+00  0.46545358E+00 -0.14920077E+00  0.00000000E+00  0.20000000E-01    1    0
  0.25395309E+00  0.46545358E+00  0.14920077E+00  0.00000000E+00  0.20000000E-01    2    0
 VARIABLES= X1,X2,Y1,Y2,R,ID,RK
ZONE T="  110" 
SOLUTIONTIME=     0.10900000,STRANDID=   1
  0.74574850E+00  0.46545358E+00 -0.14920077E+00  0.00000000E+00  0.20000000E-01    1    0
  0.25425150E+00  0.46545358E+00  0.14920077E+00  0.00000000E+00  0.20000000E-01    2    0
 VARIABLES= X1,X2,Y1,Y2,R,ID,RK
ZONE T="  112" 
SOLUTIONTIME=     0.11100000,STRANDID=   1
  0.74545010E+00  0.46545358E+00 -0.14920077E+00  0.00000000E+00  0.20000000E-01    1    0
  0.25454990E+00  0.46545358E+00  0.14920077E+00  0.00000000E+00  0.20000000E-01    2    0
 VARIABLES= X1,X2,Y1,Y2,R,ID,RK
ZONE T="  114" 
SOLUTIONTIME=     0.11300000,STRANDID=   1
  0.74515170E+00  0.46545358E+00 -0.14920077E+00  0.00000000E+00  0.20000000E-01    1    0
  0.25484830E+00  0.46545358E+00  0.14920077E+00  0.00000000E+00  0.20000000E-01    2    0
 VARIABLES= X1,X2,Y1,Y2,R,ID,RK
ZONE T="  116" 
SOLUTIONTIME=     0.11500000,STRANDID=   1
  0.74485330E+00  0.46545358E+00 -0.14920077E+00  0.00000000E+00  0.20000000E-01    1    0
  0.25514670E+00  0.46545358E+00  0.14920077E+00  0.00000000E+00  0.20000000E-01    2    0
 VARIABLES= X1,X2,Y1,Y2,R,ID,RK
ZONE T="  118" 
SOLUTIONTIME=     0.11700000,STRANDID=   1
  0.74455490E+00  0.46545358E+00 -0.14920077E+00  0.00000000E+00  0.20000000E-01    1    0
  0.25544510E+00  0.46545358E+00  0.14920077E+00  0.00000000E+00  0.20000000E-01    2    0
 VARIABLES= X1,X2,Y1,Y2,R,ID,RK
ZONE T="  120" 
SOLUTIONTIME=     0.11900000,STRANDID=   1
  0.74425650E+00  0.46545358E+00 -0.14920077E+00  0.00000000E+00  0.20000000E-01    1    0
  0.25574350E+00  0.46545358E+00  0.14920077E+00  0.00000000E+00  0.20000000E-01    2    0
 VARIABLES= X1,X2,Y1,Y2,R,ID,RK
ZONE T="  122" 
SOLUTIONTIME=     0.12100000,STRANDID=   1
  0.74395809E+00  0.46545358E+00 -0.14920077E+00  0.00000000E+00  0.20000000E-01    1    0
  0.25604191E+00  0.46545358E+00  0.14920077E+00  0.00000000E+00  0.20000000E-01    2    0
 VARIABLES= X1,X2,Y1,Y2,R,ID,RK
ZONE T="  124" 
SOLUTIONTIME=     0.12300000,STRANDID=   1
  0.74365969E+00  0.46545358E+00 -0.14920077E+00  0.00000000E+00  0.20000000E-01    1    0
  0.25634031E+00  0.46545358E+00  0.14920077E+00  0.00000000E+00  0.20000000E-01    2    0
 VARIABLES= X1,X2,Y1,Y2,R,ID,RK
ZONE T="  126" 
SOLUTIONTIME=     0.12500000,STRANDID=   1
  0.74336129E+00  0.46545358E+00 -0.14920077E+00  0.00000000E+00  0.20000000E-01    1    0
  0.25663871E+00  0.46545358E+00  0.14920077E+00  0.00000000E+00  0.20000000E-01    2    0
 VARIABLES= X1,X2,Y1,Y2,R,ID,RK
ZONE T="  128" 
SOLUTIONTIME=     0.12700000,STRANDID=   1
  0.74306289E+00  0.46545358E+00 -0.14920077E+00  0.00000000E+00  0.20000000E-01    1    0
  0.25693711E+00  0.46545358E+00  0.14920077E+00  0.00000000E+00  0.20000000E-01    2    0
 VARIABLES= X1,X2,Y1,Y2,R,ID,RK
ZONE T="  130" 
SOLUTIONTIME=     0.12900000,STRANDID=   1
  0.74276449E+00  0.46545358E+00 -0.14920077E+00  0.00000000E+00  0.20000000E-01    1    0
  0.25723551E+00  0.46545358E+00  0.14920077E+00  0.00000000E+00  0.20000000E-01    2    0
 VARIABLES= X1,X2,Y1,Y2,R,ID,RK
ZONE T="  132" 
SOLUTIONTIME=     0.13100000,STRANDID=   1
  0.74246609E+00  0.46545358E+00 -0.14920077E+00  0.00000000E+00  0.20000000E-01    1    0
  0.25753391E+00  0.46545358E+00  0.14920077E+00  0.00000000E+00  0.20000000E-01    2    0
 VARIABLES= X1,X2,Y1,Y2,R,ID,RK
ZONE T="  134" 
SOLUTIONTIME=     0.13300000,STRANDID=   1
  0.74216769E+00  0.46545358E+00 -0.14920077E+00  0.00000000E+00  0.20000000E-01    1    0
  0.25783231E+00  0.46545358E+00  0.14920077E+00  0.00000000E+00  0.20000000E-01    2    0
 VARIABLES= X1,X2,Y1,Y2,R,ID,RK
ZONE T="  136" 
SOLUTIONTIME=     0.13500000,STRANDID=   1
  0.74186928E+00  0.46545358E+00 -0.14920077E+00  0.00000000E+00  0.20000000E-01    1    0
  0.25813072E+00  0.46545358E+00  0.14920077E+00  0.00000000E+00  0.20000000E-01    2    0
 VARIABLES= X1,X2,Y1,Y2,R,ID,RK
ZONE T="  138" 
SOLUTIONTIME=     0.13700000,STRANDID=   1
  0.74157088E+00  0.46545358E+00 -0.14920077E+00  0.00000000E+00  0.20000000E-01    1    0
  0.25842912E+00  0.46545358E+00  0.14920077E+00  0.00000000E+00  0.20000000E-01    2    0
 VARIABLES= X1,X2,Y1,Y2,R,ID,RK
ZONE T="  140" 
SOLUTIONTIME=     0.13900000,STRANDID=   1
  0.74127248E+00  0.46545358E+00 -0.14920077E+00  0.00000000E+00  0.20000000E-01    1    0
  0.25872752E+00  0.46545358E+00  0.14920077E+00  0.00000000E+00  0.20000000E-01    2    0
 VARIABLES= X1,X2,Y1,Y2,R,ID,RK
ZONE T="  142" 
SOLUTIONTIME=     0.14100000,STRANDID=   1
  0.74097408E+00  0.46545358E+00 -0.14920077E+00  0.00000000E+00  0.20000000E-01    1    0
  0.25902592E+00  0.46545358E+00  0.14920077E+00  0.00000000E+00  0.20000000E-01    2    0
 VARIABLES= X1,X2,Y1,Y2,R,ID,RK
ZONE T="  144" 
SOLUTIONTIME=     0.14300000,STRANDID=   1
  0.74067568E+00  0.46545358E+00 -0.14920077E+00  0.00000000E+00  0.20000000E-01    1    0
  0.25932432E+00  0.46545358E+00  0.14920077E+00  0.00000000E+00  0.20000000E-01    2    0
 VARIABLES= X1,X2,Y1,Y2,R,ID,RK
ZONE T="  146" 
SOLUTIONTIME=     0.14500000,STRANDID=   1
  0.74037728E+00  0.46545358E+00 -0.14920077E+00  0.00000000E+00  0.20000000E-01    1    0
  0.25962272E+00  0.46545358E+00  0.14920077E+00  0.00000000E+00  0.20000000E-01    2    0
 VARIABLES= X1,X2,Y1,Y2,R,ID,RK
ZONE T="  148" 
SOLUTIONTIME=     0.14700000,STRANDID=   1
  0.74007887E+00  0.46545358E+00 -0.14920077E+00  0.00000000E+00  0.20000000E-01    1    0
  0.25992113E+00  0.46545358E+00  0.14920077E+00  0.00000000E+00  0.20000000E-01    2    0
 VARIABLES= X1,X2,Y1,Y2,R,ID,RK
ZONE T="  150" 
SOLUTIONTIME=     0.14900000,STRANDID=   1
  0.73978047E+00  0.46545358E+00 -0.14920077E+00  0.00000000E+00  0.20000000E-01    1    0
  0.26021953E+00  0.46545358E+00  0.14920077E+00  0.00000000E+00  0.20000000E-01    2    0
 VARIABLES= X1,X2,Y1,Y2,R,ID,RK
ZONE T="  152" 
SOLUTIONTIME=     0.15100000,STRANDID=   1
  0.73948207E+00  0.46545358E+00 -0.14920077E+00  0.00000000E+00  0.20000000E-01    1    0
  0.26051793E+00  0.46545358E+00  0.14920077E+00  0.00000000E+00  0.20000000E-01    2    0
 VARIABLES= X1,X2,Y1,Y2,R,ID,RK
ZONE T="  154" 
SOLUTIONTIME=     0.15300000,STRANDID=   1
  0.73918367E+00  0.46545358E+00 -0.14920077E+00  0.00000000E+00  0.20000000E-01    1    0
  0.26081633E+00  0.46545358E+00  0.14920077E+00  0.00000000E+00  0.20000000E-01    2    0
 VARIABLES= X1,X2,Y1,Y2,R,ID,RK
ZONE T="  156" 
SOLUTIONTIME=     0.15500000,STRANDID=   1
  0.73888527E+00  0.46545358E+00 -0.14920077E+00  0.00000000E+00  0.20000000E-01    1    0
  0.26111473E+00  0.46545358E+00  0.14920077E+00  0.00000000E+00  0.20000000E-01    2    0
 VARIABLES= X1,X2,Y1,Y2,R,ID,RK
ZONE T="  158" 
SOLUTIONTIME=     0.15700000,STRANDID=   1
  0.73858687E+00  0.46545358E+00 -0.14920077E+00  0.00000000E+00  0.20000000E-01    1    0
  0.26141313E+00  0.46545358E+00  0.14920077E+00  0.00000000E+00  0.20000000E-01    2    0
 VARIABLES= X1,X2,Y1,Y2,R,ID,RK
ZONE T="  160" 
SOLUTIONTIME=     0.15900000,STRANDID=   1
  0.73828847E+00  0.46545358E+00 -0.14920077E+00  0.00000000E+00  0.20000000E-01    1    0
  0.26171153E+00  0.46545358E+00  0.14920077E+00  0.00000000E+00  0.20000000E-01    2    0
 VARIABLES= X1,X2,Y1,Y2,R,ID,RK
ZONE T="  162" 
SOLUTIONTIME=     0.16100000,STRANDID=   1
  0.73799006E+00  0.46545358E+00 -0.14920077E+00  0.00000000E+00  0.20000000E-01    1    0
  0.26200994E+00  0.46545358E+00  0.14920077E+00  0.00000000E+00  0.20000000E-01    2    0
 VARIABLES= X1,X2,Y1,Y2,R,ID,RK
ZONE T="  164" 
SOLUTIONTIME=     0.16300000,STRANDID=   1
  0.73769166E+00  0.46545358E+00 -0.14920077E+00  0.00000000E+00  0.20000000E-01    1    0
  0.26230834E+00  0.46545358E+00  0.14920077E+00  0.00000000E+00  0.20000000E-01    2    0
 VARIABLES= X1,X2,Y1,Y2,R,ID,RK
ZONE T="  166" 
SOLUTIONTIME=     0.16500000,STRANDID=   1
  0.73739326E+00  0.46545358E+00 -0.14920077E+00  0.00000000E+00  0.20000000E-01    1    0
  0.26260674E+00  0.46545358E+00  0.14920077E+00  0.00000000E+00  0.20000000E-01    2    0
 VARIABLES= X1,X2,Y1,Y2,R,ID,RK
ZONE T="  168" 
SOLUTIONTIME=     0.16700000,STRANDID=   1
  0.73709486E+00  0.46545358E+00 -0.14920077E+00  0.00000000E+00  0.20000000E-01    1    0
  0.26290514E+00  0.46545358E+00  0.14920077E+00  0.00000000E+00  0.20000000E-01    2    0
 VARIABLES= X1,X2,Y1,Y2,R,ID,RK
ZONE T="  170" 
SOLUTIONTIME=     0.16900000,STRANDID=   1
  0.73679646E+00  0.46545358E+00 -0.14920077E+00  0.00000000E+00  0.20000000E-01    1    0
  0.26320354E+00  0.46545358E+00  0.14920077E+00  0.00000000E+00  0.20000000E-01    2    0
 VARIABLES= X1,X2,Y1,Y2,R,ID,RK
ZONE T="  172" 
SOLUTIONTIME=     0.17100000,STRANDID=   1
  0.73649806E+00  0.46545358E+00 -0.14920077E+00  0.00000000E+00  0.20000000E-01    1    0
  0.26350194E+00  0.46545358E+00  0.14920077E+00  0.00000000E+00  0.20000000E-01    2    0
 VARIABLES= X1,X2,Y1,Y2,R,ID,RK
ZONE T="  174" 
SOLUTIONTIME=     0.17300000,STRANDID=   1
  0.73619965E+00  0.46545358E+00 -0.14920077E+00  0.00000000E+00  0.20000000E-01    1    0
  0.26380035E+00  0.46545358E+00  0.14920077E+00  0.00000000E+00  0.20000000E-01    2    0
 VARIABLES= X1,X2,Y1,Y2,R,ID,RK
ZONE T="  176" 
SOLUTIONTIME=     0.17500000,STRANDID=   1
  0.73590125E+00  0.46545358E+00 -0.14920077E+00  0.00000000E+00  0.20000000E-01    1    0
  0.26409875E+00  0.46545358E+00  0.14920077E+00  0.00000000E+00  0.20000000E-01    2    0
 VARIABLES= X1,X2,Y1,Y2,R,ID,RK
ZONE T="  178" 
SOLUTIONTIME=     0.17700000,STRANDID=   1
  0.73560285E+00  0.46545358E+00 -0.14920077E+00  0.00000000E+00  0.20000000E-01    1    0
  0.26439715E+00  0.46545358E+00  0.14920077E+00  0.00000000E+00  0.20000000E-01    2    0
 VARIABLES= X1,X2,Y1,Y2,R,ID,RK
ZONE T="  180" 
SOLUTIONTIME=     0.17900000,STRANDID=   1
  0.73530445E+00  0.46545358E+00 -0.14920077E+00  0.00000000E+00  0.20000000E-01    1    0
  0.26469555E+00  0.46545358E+00  0.14920077E+00  0.00000000E+00  0.20000000E-01    2    0
 VARIABLES= X1,X2,Y1,Y2,R,ID,RK
ZONE T="  182" 
SOLUTIONTIME=     0.18100000,STRANDID=   1
  0.73500605E+00  0.46545358E+00 -0.14920077E+00  0.00000000E+00  0.20000000E-01    1    0
  0.26499395E+00  0.46545358E+00  0.14920077E+00  0.00000000E+00  0.20000000E-01    2    0
 VARIABLES= X1,X2,Y1,Y2,R,ID,RK
ZONE T="  184" 
SOLUTIONTIME=     0.18300000,STRANDID=   1
  0.73470765E+00  0.46545358E+00 -0.14920077E+00  0.00000000E+00  0.20000000E-01    1    0
  0.26529235E+00  0.46545358E+00  0.14920077E+00  0.00000000E+00  0.20000000E-01    2    0
 VARIABLES= X1,X2,Y1,Y2,R,ID,RK
ZONE T="  186" 
SOLUTIONTIME=     0.18500000,STRANDID=   1
  0.73440925E+00  0.46545358E+00 -0.14920077E+00  0.00000000E+00  0.20000000E-01    1    0
  0.26559075E+00  0.46545358E+00  0.14920077E+00  0.00000000E+00  0.20000000E-01    2    0
 VARIABLES= X1,X2,Y1,Y2,R,ID,RK
ZONE T="  188" 
SOLUTIONTIME=     0.18700000,STRANDID=   1
  0.73411084E+00  0.46545358E+00 -0.14920077E+00  0.00000000E+00  0.20000000E-01    1    0
  0.26588916E+00  0.46545358E+00  0.14920077E+00  0.00000000E+00  0.20000000E-01    2    0
 VARIABLES= X1,X2,Y1,Y2,R,ID,RK
ZONE T="  190" 
SOLUTIONTIME=     0.18900000,STRANDID=   1
  0.73381244E+00  0.46545358E+00 -0.14920077E+00  0.00000000E+00  0.20000000E-01    1    0
  0.26618756E+00  0.46545358E+00  0.14920077E+00  0.00000000E+00  0.20000000E-01    2    0
 VARIABLES= X1,X2,Y1,Y2,R,ID,RK
ZONE T="  192" 
SOLUTIONTIME=     0.19100000,STRANDID=   1
  0.73351404E+00  0.46545358E+00 -0.14920077E+00  0.00000000E+00  0.20000000E-01    1    0
  0.26648596E+00  0.46545358E+00  0.14920077E+00  0.00000000E+00  0.20000000E-01    2    0
 VARIABLES= X1,X2,Y1,Y2,R,ID,RK
ZONE T="  194" 
SOLUTIONTIME=     0.19300000,STRANDID=   1
  0.73321564E+00  0.46545358E+00 -0.14920077E+00  0.00000000E+00  0.20000000E-01    1    0
  0.26678436E+00  0.46545358E+00  0.14920077E+00  0.00000000E+00  0.20000000E-01    2    0
 VARIABLES= X1,X2,Y1,Y2,R,ID,RK
ZONE T="  196" 
SOLUTIONTIME=     0.19500000,STRANDID=   1
  0.73291724E+00  0.46545358E+00 -0.14920077E+00  0.00000000E+00  0.20000000E-01    1    0
  0.26708276E+00  0.46545358E+00  0.14920077E+00  0.00000000E+00  0.20000000E-01    2    0
 VARIABLES= X1,X2,Y1,Y2,R,ID,RK
ZONE T="  198" 
SOLUTIONTIME=     0.19700000,STRANDID=   1
  0.73261884E+00  0.46545358E+00 -0.14920077E+00  0.00000000E+00  0.20000000E-01    1    0
  0.26738116E+00  0.46545358E+00  0.14920077E+00  0.00000000E+00  0.20000000E-01    2    0
 VARIABLES= X1,X2,Y1,Y2,R,ID,RK
ZONE T="  200" 
SOLUTIONTIME=     0.19900000,STRANDID=   1
  0.73232043E+00  0.46545358E+00 -0.14920077E+00  0.00000000E+00  0.20000000E-01    1    0
  0.26767957E+00  0.46545358E+00  0.14920077E+00  0.00000000E+00  0.20000000E-01    2    0
 VARIABLES= X1,X2,Y1,Y2,R,ID,RK
ZONE T="  202" 
SOLUTIONTIME=     0.20100000,STRANDID=   1
  0.73202203E+00  0.46545358E+00 -0.14920077E+00  0.00000000E+00  0.20000000E-01    1    0
  0.26797797E+00  0.46545358E+00  0.14920077E+00  0.00000000E+00  0.20000000E-01    2    0
 VARIABLES= X1,X2,Y1,Y2,R,ID,RK
ZONE T="  204" 
SOLUTIONTIME=     0.20300000,STRANDID=   1
  0.73172363E+00  0.46545358E+00 -0.14920077E+00  0.00000000E+00  0.20000000E-01    1    0
  0.26827637E+00  0.46545358E+00  0.14920077E+00  0.00000000E+00  0.20000000E-01    2    0
 VARIABLES= X1,X2,Y1,Y2,R,ID,RK
ZONE T="  206" 
SOLUTIONTIME=     0.20500000,STRANDID=   1
  0.73142523E+00  0.46545358E+00 -0.14920077E+00  0.00000000E+00  0.20000000E-01    1    0
  0.26857477E+00  0.46545358E+00  0.14920077E+00  0.00000000E+00  0.20000000E-01    2    0
 VARIABLES= X1,X2,Y1,Y2,R,ID,RK
ZONE T="  208" 
SOLUTIONTIME=     0.20700000,STRANDID=   1
  0.73112683E+00  0.46545358E+00 -0.14920077E+00  0.00000000E+00  0.20000000E-01    1    0
  0.26887317E+00  0.46545358E+00  0.14920077E+00  0.00000000E+00  0.20000000E-01    2    0
 VARIABLES= X1,X2,Y1,Y2,R,ID,RK
ZONE T="  210" 
SOLUTIONTIME=     0.20900000,STRANDID=   1
  0.73082843E+00  0.46545358E+00 -0.14920077E+00  0.00000000E+00  0.20000000E-01    1    0
  0.26917157E+00  0.46545358E+00  0.14920077E+00  0.00000000E+00  0.20000000E-01    2    0
 VARIABLES= X1,X2,Y1,Y2,R,ID,RK
ZONE T="  212" 
SOLUTIONTIME=     0.21100000,STRANDID=   1
  0.73053003E+00  0.46545358E+00 -0.14920077E+00  0.00000000E+00  0.20000000E-01    1    0
  0.26946997E+00  0.46545358E+00  0.14920077E+00  0.00000000E+00  0.20000000E-01    2    0
 VARIABLES= X1,X2,Y1,Y2,R,ID,RK
ZONE T="  214" 
SOLUTIONTIME=     0.21300000,STRANDID=   1
  0.73023162E+00  0.46545358E+00 -0.14920077E+00  0.00000000E+00  0.20000000E-01    1    0
  0.26976838E+00  0.46545358E+00  0.14920077E+00  0.00000000E+00  0.20000000E-01    2    0
 VARIABLES= X1,X2,Y1,Y2,R,ID,RK
ZONE T="  216" 
SOLUTIONTIME=     0.21500000,STRANDID=   1
  0.72993322E+00  0.46545358E+00 -0.14920077E+00  0.00000000E+00  0.20000000E-01    1    0
  0.27006678E+00  0.46545358E+00  0.14920077E+00  0.00000000E+00  0.20000000E-01    2    0
 VARIABLES= X1,X2,Y1,Y2,R,ID,RK
ZONE T="  218" 
SOLUTIONTIME=     0.21700000,STRANDID=   1
  0.72963482E+00  0.46545358E+00 -0.14920077E+00  0.00000000E+00  0.20000000E-01    1    0
  0.27036518E+00  0.46545358E+00  0.14920077E+00  0.00000000E+00  0.20000000E-01    2    0
 VARIABLES= X1,X2,Y1,Y2,R,ID,RK
ZONE T="  220" 
SOLUTIONTIME=     0.21900000,STRANDID=   1
  0.72933642E+00  0.46545358E+00 -0.14920077E+00  0.00000000E+00  0.20000000E-01    1    0