 VARIABLES= X1,X2,Y1,Y2,R,ID,RK
ZONE T="    2" 
SOLUTIONTIME=     0.00154919,STRANDID=   1
  0.50000000E+00  0.49961955E+00  0.00000000E+00 -0.13038479E+00  0.20000000E-01    1    0
 VARIABLES= X1,X2,Y1,Y2,R,ID,RK
ZONE T="    4" 
SOLUTIONTIME=     0.00464758,STRANDID=   1
  0.50000000E+00  0.49914496E+00  0.00000000E+00 -0.16076959E+00  0.20000000E-01    1    0
 VARIABLES= X1,X2,Y1,Y2,R,ID,RK
ZONE T="    6" 
SOLUTIONTIME=     0.00774597,STRANDID=   1
  0.50000000E+00  0.49857623E+00  0.00000000E+00 -0.19115438E+00  0.20000000E-01    1    0
 VARIABLES= X1,X2,Y1,Y2,R,ID,RK
ZONE T="    8" 
SOLUTIONTIME=     0.01084435,STRANDID=   1
  0.50000000E+00  0.49791335E+00  0.00000000E+00 -0.22153917E+00  0.20000000E-01    1    0
 VARIABLES= X1,X2,Y1,Y2,R,ID,RK
ZONE T="   10" 
SOLUTIONTIME=     0.01394274,STRANDID=   1
  0.50000000E+00  0.49715633E+00  0.00000000E+00 -0.25192397E+00  0.20000000E-01    1    0
 VARIABLES= X1,X2,Y1,Y2,R,ID,RK
ZONE T="   12" 
SOLUTIONTIME=     0.01704113,STRANDID=   1
  0.50000000E+00  0.49630516E+00  0.00000000E+00 -0.28230876E+00  0.20000000E-01    1    0
 VARIABLES= X1,X2,Y1,Y2,R,ID,RK
ZONE T="   14" 
SOLUTIONTIME=     0.02013951,STRANDID=   1
  0.50000000E+00  0.49535985E+00  0.00000000E+00 -0.31269356E+00  0.20000000E-01    1    0
 VARIABLES= X1,X2,Y1,Y2,R,ID,RK
ZONE T="   16" 
SOLUTIONTIME=     0.02323790,STRANDID=   1
  0.50000000E+00  0.49432040E+00  0.00000000E+00 -0.34307835E+00  0.20000000E-01    1    0
 VARIABLES= X1,X2,Y1,Y2,R,ID,RK
ZONE T="   18" 
SOLUTIONTIME=     0.02633629,STRANDID=   1
  0.50000000E+00  0.49318680E+00  0.00000000E+00 -0.37346314E+00  0.20000000E-01    1    0
 VARIABLES= X1,X2,Y1,Y2,R,ID,RK
ZONE T="   20" 
SOLUTIONTIME=     0.02943467,STRANDID=   1
  0.50000000E+00  0.49195906E+00  0.00000000E+00 -0.40384794E+00  0.20000000E-01    1    0
 VARIABLES= X1,X2,Y1,Y2,R,ID,RK
ZONE T="   22" 
SOLUTIONTIME=     0.03253306,STRANDID=   1
  0.50000000E+00  0.49063718E+00  0.00000000E+00 -0.43423273E+00  0.20000000E-01    1    0
 VARIABLES= X1,X2,Y1,Y2,R,ID,RK
ZONE T="   24" 
SOLUTIONTIME=     0.03563145,STRANDID=   1
  0.50000000E+00  0.48922115E+00  0.00000000E+00 -0.46461752E+00  0.20000000E-01    1    0
 VARIABLES= X1,X2,Y1,Y2,R,ID,RK
ZONE T="   26" 
SOLUTIONTIME=     0.03872983,STRANDID=   1
  0.50000000E+00  0.48771098E+00  0.00000000E+00 -0.49500232E+00  0.20000000E-01    1    0
 VARIABLES= X1,X2,Y1,Y2,R,ID,RK
ZONE T="   28" 
SOLUTIONTIME=     0.04182822,STRANDID=   1
  0.50000000E+00  0.48610666E+00  0.00000000E+00 -0.52538711E+00  0.20000000E-01    1    0
 VARIABLES= X1,X2,Y1,Y2,R,ID,RK
ZONE T="   30" 
SOLUTIONTIME=     0.04492661,STRANDID=   1
  0.50000000E+00  0.48440820E+00  0.00000000E+00 -0.55577191E+00  0.20000000E-01    1    0
 VARIABLES= X1,X2,Y1,Y2,R,ID,RK
ZONE T="   32" 
SOLUTIONTIME=     0.04802499,STRANDID=   1
  0.50000000E+00  0.48261559E+00  0.00000000E+00 -0.58615670E+00  0.20000000E-01    1    0
 VARIABLES= X1,X2,Y1,Y2,R,ID,RK
ZONE T="   34" 
SOLUTIONTIME=     0.05112338,STRANDID=   1
  0.50000000E+00  0.48072885E+00  0.00000000E+00 -0.61654149E+00  0.20000000E-01    1    0
 VARIABLES= X1,X2,Y1,Y2,R,ID,RK
ZONE T="   36" 
SOLUTIONTIME=     0.05422177,STRANDID=   1
  0.50000000E+00  0.47874795E+00  0.00000000E+00 -0.64692629E+00  0.20000000E-01    1    0
 VARIABLES= X1,X2,Y1,Y2,R,ID,RK
ZONE T="   38" 
SOLUTIONTIME=     0.05732015,STRANDID=   1
  0.50000000E+00  0.47667292E+00  0.00000000E+00 -0.67731108E+00  0.20000000E-01    1    0
 VARIABLES= X1,X2,Y1,Y2,R,ID,RK
ZONE T="   40" 
SOLUTIONTIME=     0.06041854,STRANDID=   1
  0.50000000E+00  0.47450374E+00  0.00000000E+00 -0.70769587E+00  0.20000000E-01    1    0
 VARIABLES= X1,X2,Y1,Y2,R,ID,RK
ZONE T="   42" 
SOLUTIONTIME=     0.06351693,STRANDID=   1
  0.50000000E+00  0.47224042E+00  0.00000000E+00 -0.73808067E+00  0.20000000E-01    1    0
 VARIABLES= X1,X2,Y1,Y2,R,ID,RK
ZONE T="   44" 
SOLUTIONTIME=     0.06661531,STRANDID=   1
  0.50000000E+00  0.46988295E+00  0.00000000E+00 -0.76846546E+00  0.20000000E-01    1    0
 VARIABLES= X1,X2,Y1,Y2,R,ID,RK
ZONE T="   46" 
SOLUTIONTIME=     0.06971370,STRANDID=   1
  0.50000000E+00  0.46743134E+00  0.00000000E+00 -0.79885026E+00  0.20000000E-01    1    0
 VARIABLES= X1,X2,Y1,Y2,R,ID,RK
ZONE T="   48" 
SOLUTIONTIME=     0.07281209,STRANDID=   1
  0.50000000E+00  0.46488558E+00  0.00000000E+00 -0.82923505E+00  0.20000000E-01    1    0
 VARIABLES= X1,X2,Y1,Y2,R,ID,RK
ZONE T="   50" 
SOLUTIONTIME=     0.07591047,STRANDID=   1
  0.50000000E+00  0.46224568E+00  0.00000000E+00 -0.85961984E+00  0.20000000E-01    1    0
 VARIABLES= X1,X2,Y1,Y2,R,ID,RK
ZONE T="   52" 
SOLUTIONTIME=     0.07900886,STRANDID=   1
  0.50000000E+00  0.45951164E+00  0.00000000E+00 -0.89000464E+00  0.20000000E-01    1    0
 VARIABLES= X1,X2,Y1,Y2,R,ID,RK
ZONE T="   54" 
SOLUTIONTIME=     0.08210725,STRANDID=   1
  0.50000000E+00  0.45668346E+00  0.00000000E+00 -0.92038943E+00  0.20000000E-01    1    0
 VARIABLES= X1,X2,Y1,Y2,R,ID,RK
ZONE T="   56" 
SOLUTIONTIME=     0.08520563,STRANDID=   1
  0.50000000E+00  0.45376113E+00  0.00000000E+00 -0.95077422E+00  0.20000000E-01    1    0
 VARIABLES= X1,X2,Y1,Y2,R,ID,RK
ZONE T="   58" 
SOLUTIONTIME=     0.08830402,STRANDID=   1
  0.50000000E+00  0.45074465E+00  0.00000000E+00 -0.98115902E+00  0.20000000E-01    1    0
 VARIABLES= X1,X2,Y1,Y2,R,ID,RK
ZONE T="   60" 
SOLUTIONTIME=     0.09140241,STRANDID=   1
  0.50000000E+00  0.44763403E+00  0.00000000E+00 -0.10115438E+01  0.20000000E-01    1    0
 VARIABLES= X1,X2,Y1,Y2,R,ID,RK
ZONE T="   62" 
SOLUTIONTIME=     0.09450079,STRANDID=   1
  0.50000000E+00  0.44442927E+00  0.00000000E+00 -0.10419286E+01  0.20000000E-01    1    0
 VARIABLES= X1,X2,Y1,Y2,R,ID,RK
ZONE T="   64" 
SOLUTIONTIME=     0.09759918,STRANDID=   1
  0.50000000E+00  0.44113037E+00  0.00000000E+00 -0.10723134E+01  0.20000000E-01    1    0
 VARIABLES= X1,X2,Y1,Y2,R,ID,RK
ZONE T="   66" 
SOLUTIONTIME=     0.10069757,STRANDID=   1
  0.50000000E+00  0.43773732E+00  0.00000000E+00 -0.11026982E+01  0.20000000E-01    1    0
 VARIABLES= X1,X2,Y1,Y2,R,ID,RK
ZONE T="   68" 
SOLUTIONTIME=     0.10379595,STRANDID=   1
  0.50000000E+00  0.43425012E+00  0.00000000E+00 -0.11330830E+01  0.20000000E-01    1    0
 VARIABLES= X1,X2,Y1,Y2,R,ID,RK
ZONE T="   70" 
SOLUTIONTIME=     0.10689434,STRANDID=   1
  0.50000000E+00  0.43066879E+00  0.00000000E+00 -0.11634678E+01  0.20000000E-01    1    0
 VARIABLES= X1,X2,Y1,Y2,R,ID,RK
ZONE T="   72" 
SOLUTIONTIME=     0.10999273,STRANDID=   1
  0.50000000E+00  0.42699331E+00  0.00000000E+00 -0.11938526E+01  0.20000000E-01    1    0
 VARIABLES= X1,X2,Y1,Y2,R,ID,RK
ZONE T="   74" 
SOLUTIONTIME=     0.11309111,STRANDID=   1
  0.50000000E+00  0.42322368E+00  0.00000000E+00 -0.12242374E+01  0.20000000E-01    1    0
 VARIABLES= X1,X2,Y1,Y2,R,ID,RK
ZONE T="   76" 
SOLUTIONTIME=     0.11618950,STRANDID=   1
  0.50000000E+00  0.41935991E+00  0.00000000E+00 -0.12546222E+01  0.20000000E-01    1    0
 VARIABLES= X1,X2,Y1,Y2,R,ID,RK
ZONE T="   78" 
SOLUTIONTIME=     0.11928789,STRANDID=   1
  0.50000000E+00  0.41540200E+00  0.00000000E+00 -0.12850070E+01  0.20000000E-01    1    0
 VARIABLES= X1,X2,Y1,Y2,R,ID,RK
ZONE T="   80" 
SOLUTIONTIME=     0.12238627,STRANDID=   1
  0.50000000E+00  0.41134994E+00  0.00000000E+00 -0.13153917E+01  0.20000000E-01    1    0
 VARIABLES= X1,X2,Y1,Y2,R,ID,RK
ZONE T="   82" 
SOLUTIONTIME=     0.12548466,STRANDID=   1
  0.50000000E+00  0.40720374E+00  0.00000000E+00 -0.13457765E+01  0.20000000E-01    1    0
 VARIABLES= X1,X2,Y1,Y2,R,ID,RK
ZONE T="   84" 
SOLUTIONTIME=     0.12858305,STRANDID=   1
  0.50000000E+00  0.40296340E+00  0.00000000E+00 -0.13761613E+01  0.20000000E-01    1    0
 VARIABLES= X1,X2,Y1,Y2,R,ID,RK
ZONE T="   86" 
SOLUTIONTIME=     0.13168143,STRANDID=   1
  0.50000000E+00  0.39862891E+00  0.00000000E+00 -0.14065461E+01  0.20000000E-01    1    0
 VARIABLES= X1,X2,Y1,Y2,R,ID,RK
ZONE T="   88" 
SOLUTIONTIME=     0.13477982,STRANDID=   1
  0.50000000E+00  0.39420028E+00  0.00000000E+00 -0.14369309E+01  0.20000000E-01    1    0
 VARIABLES= X1,X2,Y1,Y2,R,ID,RK
ZONE T="   90" 
SOLUTIONTIME=     0.13787821,STRANDID=   1
  0.50000000E+00  0.38967750E+00  0.00000000E+00 -0.14673157E+01  0.20000000E-01    1    0
 VARIABLES= X1,X2,Y1,Y2,R,ID,RK
ZONE T="   92" 
SOLUTIONTIME=     0.14097659,STRANDID=   1
  0.50000000E+00  0.38506058E+00  0.00000000E+00 -0.14977005E+01  0.20000000E-01    1    0
 VARIABLES= X1,X2,Y1,Y2,R,ID,RK
ZONE T="   94" 
SOLUTIONTIME=     0.14407498,STRANDID=   1
  0.50000000E+00  0.38034952E+00  0.00000000E+00 -0.15280853E+01  0.20000000E-01    1    0
 VARIABLES= X1,X2,Y1,Y2,R,ID,RK
ZONE T="   96" 
SOLUTIONTIME=     0.14717337,STRANDID=   1
  0.50000000E+00  0.37554431E+00  0.00000000E+00 -0.15584701E+01  0.20000000E-01    1    0
 VARIABLES= X1,X2,Y1,Y2,R,ID,RK
ZONE T="   98" 
SOLUTIONTIME=     0.15027175,STRANDID=   1
  0.50000000E+00  0.37064496E+00  0.00000000E+00 -0.15888549E+01  0.20000000E-01    1    0
 VARIABLES= X1,X2,Y1,Y2,R,ID,RK
ZONE T="  100" 
SOLUTIONTIME=     0.15337014,STRANDID=   1
  0.50000000E+00  0.36565147E+00  0.00000000E+00 -0.16192397E+01  0.20000000E-01    1    0
 VARIABLES= X1,X2,Y1,Y2,R,ID,RK
ZONE T="  102" 
SOLUTIONTIME=     0.15646853,STRANDID=   1
  0.50000000E+00  0.36056383E+00  0.00000000E+00 -0.16496245E+01  0.20000000E-01    1    0
 VARIABLES= X1,X2,Y1,Y2,R,ID,RK
ZONE T="  104" 
SOLUTIONTIME=     0.15956691,STRANDID=   1
  0.50000000E+00  0.35538205E+00  0.00000000E+00 -0.16800093E+01  0.20000000E-01    1    0
 VARIABLES= X1,X2,Y1,Y2,R,ID,RK
ZONE T="  106" 
SOLUTIONTIME=     0.16266530,STRANDID=   1
  0.50000000E+00  0.35010612E+00  0.00000000E+00 -0.17103941E+01  0.20000000E-01    1    0
 VARIABLES= X1,X2,Y1,Y2,R,ID,RK
ZONE T="  108" 
SOLUTIONTIME=     0.16576369,STRANDID=   1
  0.50000000E+00  0.34473605E+00  0.00000000E+00 -0.17407789E+01  0.20000000E-01    1    0
 VARIABLES= X1,X2,Y1,Y2,R,ID,RK
ZONE T="  110" 
SOLUTIONTIME=     0.16886207,STRANDID=   1
  0.50000000E+00  0.33927184E+00  0.00000000E+00 -0.17711637E+01  0.20000000E-01    1    0
 VARIABLES= X1,X2,Y1,Y2,R,ID,RK
ZONE T="  112" 
SOLUTIONTIME=     0.17196046,STRANDID=   1
  0.50000000E+00  0.33371348E+00  0.00000000E+00 -0.18015484E+01  0.20000000E-01    1    0
 VARIABLES= X1,X2,Y1,Y2,R,ID,RK
ZONE T="  114" 
SOLUTIONTIME=     0.17505885,STRANDID=   1
  0.50000000E+00  0.32806098E+00  0.00000000E+00 -0.18319332E+01  0.20000000E-01    1    0
 VARIABLES= X1,X2,Y1,Y2,R,ID,RK
ZONE T="  116" 
SOLUTIONTIME=     0.17815723,STRANDID=   1
  0.50000000E+00  0.32231433E+00  0.00000000E+00 -0.18623180E+01  0.20000000E-01    1    0
 VARIABLES= X1,X2,Y1,Y2,R,ID,RK
ZONE T="  118" 
SOLUTIONTIME=     0.18125562,STRANDID=   1
  0.50000000E+00  0.31647354E+00  0.00000000E+00 -0.18927028E+01  0.20000000E-01    1    0
 VARIABLES= X1,X2,Y1,Y2,R,ID,RK
ZONE T="  120" 
SOLUTIONTIME=     0.18435401,STRANDID=   1
  0.50000000E+00  0.31053861E+00  0.00000000E+00 -0.19230876E+01  0.20000000E-01    1    0
 VARIABLES= X1,X2,Y1,Y2,R,ID,RK
ZONE T="  122" 
SOLUTIONTIME=     0.18745239,STRANDID=   1
  0.50000000E+00  0.30450953E+00  0.00000000E+00 -0.19534724E+01  0.20000000E-01    1    0
 VARIABLES= X1,X2,Y1,Y2,R,ID,RK
ZONE T="  124" 
SOLUTIONTIME=     0.19055078,STRANDID=   1
  0.50000000E+00  0.29838631E+00  0.00000000E+00 -0.19838572E+01  0.20000000E-01    1    0
 VARIABLES= X1,X2,Y1,Y2,R,ID,RK
ZONE T="  126" 
SOLUTIONTIME=     0.19364917,STRANDID=   1
  0.50000000E+00  0.29216895E+00  0.00000000E+00 -0.20142420E+01  0.20000000E-01    1    0
 VARIABLES= X1,X2,Y1,Y2,R,ID,RK
ZONE T="  128" 
SOLUTIONTIME=     0.19674755,STRANDID=   1
  0.50000000E+00  0.28585744E+00  0.00000000E+00 -0.20446268E+01  0.20000000E-01    1    0
 VARIABLES= X1,X2,Y1,Y2,R,ID,RK
ZONE T="  130" 
SOLUTIONTIME=     0.19984594,STRANDID=   1
  0.50000000E+00  0.27945179E+00  0.00000000E+00 -0.20750116E+01  0.20000000E-01    1    0
 VARIABLES= X1,X2,Y1,Y2,R,ID,RK
ZONE T="  132" 
SOLUTIONTIME=     0.20294433,STRANDID=   1
  0.50000000E+00  0.27295199E+00  0.00000000E+00 -0.21053964E+01  0.20000000E-01    1    0
 VARIABLES= X1,X2,Y1,Y2,R,ID,RK
ZONE T="  134" 
SOLUTIONTIME=     0.20604271,STRANDID=   1
  0.50000000E+00  0.26635805E+00  0.00000000E+00 -0.21357812E+01  0.20000000E-01    1    0
 VARIABLES= X1,X2,Y1,Y2,R,ID,RK
ZONE T="  136" 
SOLUTIONTIME=     0.20914110,STRANDID=   1
  0.50000000E+00  0.25966997E+00  0.00000000E+00 -0.21661660E+01  0.20000000E-01    1    0
 VARIABLES= X1,X2,Y1,Y2,R,ID,RK
ZONE T="  138" 
SOLUTIONTIME=     0.21223949,STRANDID=   1
  0.50000000E+00  0.25288774E+00  0.00000000E+00 -0.21965508E+01  0.20000000E-01    1    0
 VARIABLES= X1,X2,Y1,Y2,R,ID,RK
ZONE T="  140" 
SOLUTIONTIME=     0.21533787,STRANDID=   1
  0.50000000E+00  0.24601137E+00  0.00000000E+00 -0.22269356E+01  0.20000000E-01    1    0
 VARIABLES= X1,X2,Y1,Y2,R,ID,RK
ZONE T="  142" 
SOLUTIONTIME=     0.21843626,STRANDID=   1
  0.50000000E+00  0.23904085E+00  0.00000000E+00 -0.22573204E+01  0.20000000E-01    1    0
 VARIABLES= X1,X2,Y1,Y2,R,ID,RK
ZONE T="  144" 
SOLUTIONTIME=     0.22153465,STRANDID=   1
  0.50000000E+00  0.23197619E+00  0.00000000E+00 -0.22877051E+01  0.20000000E-01    1    0
 VARIABLES= X1,X2,Y1,Y2,R,ID,RK
ZONE T="  146" 
SOLUTIONTIME=     0.22463303,STRANDID=   1
  0.50000000E+00  0.22481739E+00  0.00000000E+00 -0.23180899E+01  0.20000000E-01    1    0
 VARIABLES= X1,X2,Y1,Y2,R,ID,RK
ZONE T="  148" 
SOLUTIONTIME=     0.22773142,STRANDID=   1
  0.50000000E+00  0.21756444E+00  0.00000000E+00 -0.23484747E+01  0.20000000E-01    1    0
 VARIABLES= X1,X2,Y1,Y2,R,ID,RK
ZONE T="  150" 
SOLUTIONTIME=     0.23082981,STRANDID=   1
  0.50000000E+00  0.21021735E+00  0.00000000E+00 -0.23788595E+01  0.20000000E-01    1    0
 VARIABLES= X1,X2,Y1,Y2,R,ID,RK
ZONE T="  152" 
SOLUTIONTIME=     0.23392819,STRANDID=   1
  0.50000000E+00  0.20277612E+00  0.00000000E+00 -0.24092443E+01  0.20000000E-01    1    0
 VARIABLES= X1,X2,Y1,Y2,R,ID,RK
ZONE T="  154" 
SOLUTIONTIME=     0.23702658,STRANDID=   1
  0.50000000E+00  0.19524074E+00  0.00000000E+00 -0.24396291E+01  0.20000000E-01    1    0
 VARIABLES= X1,X2,Y1,Y2,R,ID,RK
ZONE T="  156" 
SOLUTIONTIME=     0.24012497,STRANDID=   1
  0.50000000E+00  0.18761122E+00  0.00000000E+00 -0.24700139E+01  0.20000000E-01    1    0
 VARIABLES= X1,X2,Y1,Y2,R,ID,RK
ZONE T="  158" 
SOLUTIONTIME=     0.24322335,STRANDID=   1
  0.50000000E+00  0.17988755E+00  0.00000000E+00 -0.25003987E+01  0.20000000E-01    1    0
 VARIABLES= X1,X2,Y1,Y2,R,ID,RK
ZONE T="  160" 
SOLUTIONTIME=     0.24632174,STRANDID=   1
  0.50000000E+00  0.17206974E+00  0.00000000E+00 -0.25307835E+01  0.20000000E-01    1    0
 VARIABLES= X1,X2,Y1,Y2,R,ID,RK
ZONE T="  162" 
SOLUTIONTIME=     0.24942013,STRANDID=   1
  0.50000000E+00  0.16415779E+00  0.00000000E+00 -0.25611683E+01  0.20000000E-01    1    0
 VARIABLES= X1,X2,Y1,Y2,R,ID,RK
ZONE T="  164" 
SOLUTIONTIME=     0.25251851,STRANDID=   1
  0.50000000E+00  0.15615169E+00  0.00000000E+00 -0.25915531E+01  0.20000000E-01    1    0
 VARIABLES= X1,X2,Y1,Y2,R,ID,RK
ZONE T="  166" 
SOLUTIONTIME=     0.25561690,STRANDID=   1
  0.50000000E+00  0.14805145E+00  0.00000000E+00 -0.26219379E+01  0.20000000E-01    1    0
 VARIABLES= X1,X2,Y1,Y2,R,ID,RK
ZONE T="  168" 
SOLUTIONTIME=     0.25871529,STRANDID=   1
  0.50000000E+00  0.13985706E+00  0.00000000E+00 -0.26523227E+01  0.20000000E-01    1    0
 VARIABLES= X1,X2,Y1,Y2,R,ID,RK
ZONE T="  170" 
SOLUTIONTIME=     0.26181367,STRANDID=   1
  0.50000000E+00  0.13156853E+00  0.00000000E+00 -0.26827075E+01  0.20000000E-01    1    0
 VARIABLES= X1,X2,Y1,Y2,R,ID,RK
ZONE T="  172" 
SOLUTIONTIME=     0.26491206,STRANDID=   1
  0.50000000E+00  0.12318586E+00  0.00000000E+00 -0.27130923E+01  0.20000000E-01    1    0
 VARIABLES= X1,X2,Y1,Y2,R,ID,RK
ZONE T="  174" 
SOLUTIONTIME=     0.26801045,STRANDID=   1
  0.50000000E+00  0.11470904E+00  0.00000000E+00 -0.27434771E+01  0.20000000E-01    1    0
 VARIABLES= X1,X2,Y1,Y2,R,ID,RK
ZONE T="  176" 
SOLUTIONTIME=     0.27110883,STRANDID=   1
  0.50000000E+00  0.10613808E+00  0.00000000E+00 -0.27738618E+01  0.20000000E-01    1    0
 VARIABLES= X1,X2,Y1,Y2,R,ID,RK
ZONE T="  178" 
SOLUTIONTIME=     0.27420722,STRANDID=   1
  0.50000000E+00  0.97472980E-01  0.00000000E+00 -0.28042466E+01  0.20000000E-01    1    0
 VARIABLES= X1,X2,Y1,Y2,R,ID,RK
ZONE T="  180" 
SOLUTIONTIME=     0.27730561,STRANDID=   1
  0.50000000E+00  0.88713732E-01  0.00000000E+00 -0.28346314E+01  0.20000000E-01    1    0
 VARIABLES= X1,X2,Y1,Y2,R,ID,RK
ZONE T="  182" 
SOLUTIONTIME=     0.28040399,STRANDID=   1
  0.50000000E+00  0.79860339E-01  0.00000000E+00 -0.28650162E+01  0.20000000E-01    1    0
 VARIABLES= X1,X2,Y1,Y2,R,ID,RK
ZONE T="  184" 
SOLUTIONTIME=     0.28350238,STRANDID=   1
  0.50000000E+00  0.70912803E-01  0.00000000E+00 -0.28954010E+01  0.20000000E-01    1    0
 VARIABLES= X1,X2,Y1,Y2,R,ID,RK
ZONE T="  186" 
SOLUTIONTIME=     0.28660077,STRANDID=   1
  0.50000000E+00  0.61871124E-01  0.00000000E+00 -0.29257858E+01  0.20000000E-01    1    0
 VARIABLES= X1,X2,Y1,Y2,R,ID,RK
ZONE T="  188" 
SOLUTIONTIME=     0.28969915,STRANDID=   1
  0.50000000E+00  0.52735300E-01  0.00000000E+00 -0.29561706E+01  0.20000000E-01    1    0
 VARIABLES= X1,X2,Y1,Y2,R,ID,RK
ZONE T="  190" 
SOLUTIONTIME=     0.29279754,STRANDID=   1
  0.50000000E+00  0.43505332E-01  0.00000000E+00 -0.29865554E+01  0.20000000E-01    1    0
 VARIABLES= X1,X2,Y1,Y2,R,ID,RK
ZONE T="  192" 
SOLUTIONTIME=     0.29589593,STRANDID=   1
  0.50000000E+00  0.34192989E-01  0.00000000E+00 -0.30169402E+01  0.20000000E-01    1    0
 VARIABLES= X1,X2,Y1,Y2,R,ID,RK
ZONE T="  194" 
SOLUTIONTIME=     0.29899431,STRANDID=   1
  0.50000000E+00  0.24798270E-01  0.00000000E+00 -0.30473250E+01  0.20000000E-01    1    0
 VARIABLES= X1,X2,Y1,Y2,R,ID,RK
ZONE T="  196" 
SOLUTIONTIME=     0.30209270,STRANDID=   1
  0.50000000E+00  0.20065606E-01  0.00000000E+00  0.30625174E+01  0.20000000E-01    1    0
 VARIABLES= X1,X2,Y1,Y2,R,ID,RK
ZONE T="  198" 
SOLUTIONTIME=     0.30519109,STRANDID=   1
  0.50000000E+00  0.29507397E-01  0.00000000E+00  0.30321326E+01  0.20000000E-01    1    0
 VARIABLES= X1,X2,Y1,Y2,R,ID,RK
ZONE T="  200" 
SOLUTIONTIME=     0.30828947,STRANDID=   1
  0.50000000E+00  0.38855045E-01  0.00000000E+00  0.30017478E+01  0.20000000E-01    1    0
 VARIABLES= X1,X2,Y1,Y2,R,ID,RK
ZONE T="  202" 
SOLUTIONTIME=     0.31138786,STRANDID=   1
  0.50000000E+00  0.48096780E-01  0.00000000E+00  0.29713630E+01  0.20000000E-01    1    0
 VARIABLES= X1,X2,Y1,Y2,R,ID,RK
ZONE T="  204" 
SOLUTIONTIME=     0.31448625,STRANDID=   1
  0.50000000E+00  0.57232604E-01  0.00000000E+00  0.29409782E+01  0.20000000E-01    1    0
 VARIABLES= X1,X2,Y1,Y2,R,ID,RK
ZONE T="  206" 
SOLUTIONTIME=     0.31758463,STRANDID=   1
  0.50000000E+00  0.66274284E-01  0.00000000E+00  0.29105934E+01  0.20000000E-01    1    0
 VARIABLES= X1,X2,Y1,Y2,R,ID,RK
ZONE T="  208" 
SOLUTIONTIME=     0.32068302,STRANDID=   1
  0.50000000E+00  0.75221820E-01  0.00000000E+00  0.28802086E+01  0.20000000E-01    1    0
 VARIABLES= X1,X2,Y1,Y2,R,ID,RK
ZONE T="  210" 
SOLUTIONTIME=     0.32378141,STRANDID=   1
  0.50000000E+00  0.84075212E-01  0.00000000E+00  0.28498238E+01  0.20000000E-01    1    0
 VARIABLES= X1,X2,Y1,Y2,R,ID,RK
ZONE T="  212" 
SOLUTIONTIME=     0.32687979,STRANDID=   1
  0.50000000E+00  0.92834460E-01  0.00000000E+00  0.28194390E+01  0.20000000E-01    1    0
 VARIABLES= X1,X2,Y1,Y2,R,ID,RK
ZONE T="  214" 
SOLUTIONTIME=     0.32997818,STRANDID=   1
  0.50000000E+00  0.10149956E+00  0.00000000E+00  0.27890542E+01  0.20000000E-01    1    0
 VARIABLES= X1,X2,Y1,Y2,R,ID,RK
ZONE T="  216" 
SOLUTIONTIME=     0.33307657,STRANDID=   1
  0.50000000E+00  0.11007053E+00  0.00000000E+00  0.27586694E+01  0.20000000E-01    1    0
 VARIABLES= X1,X2,Y1,Y2,R,ID,RK
ZONE T="  218" 
SOLUTIONTIME=     0.33617495,STRANDID=   1
  0.50000000E+00  0.11854734E+00  0.00000000E+00  0.27282847E+01  0.20000000E-01    1    0
 VARIABLES= X1,X2,Y1,Y2,R,ID,RK
ZONE T="  220" 
SOLUTIONTIME=     0.33927334,STRANDID=   1
  0.50000000E+00  0.12693001E+00  0.00000000E+00  0.26978999E+01  0.20000000E-01    1    0
 VARIABLES= X1,X2,Y1,Y2,R,ID,RK
ZONE T="  222" 
SOLUTIONTIME=     0.34237173,STRANDID=   1
  0.50000000E+00  0.13521854E+00  0.00000000E+00  0.26675151E+01  0.20000000E-01    1    0
 VARIABLES= X1,X2,Y1,Y2,R,ID,RK
ZONE T="  224" 
SOLUTIONTIME=     0.34547011,STRANDID=   1
  0.50000000E+00  0.14341293E+00  0.00000000E+00  0.26371303E+01  0.20000000E-01    1    0
 VARIABLES= X1,X2,Y1,Y2,R,ID,RK
ZONE T="  226" 
SOLUTIONTIME=     0.34856850,STRANDID=   1
  0.50000000E+00  0.15151317E+00  0.00000000E+00  0.26067455E+01  0.20000000E-01    1    0
 VARIABLES= X1,X2,Y1,Y2,R,ID,RK
ZONE T="  228" 
SOLUTIONTIME=     0.35166689,STRANDID=   1
  0.50000000E+00  0.15951927E+00  0.00000000E+00  0.25763607E+01  0.20000000E-01    1    0
 VARIABLES= X1,X2,Y1,Y2,R,ID,RK
ZONE T="  230" 
SOLUTIONTIME=     0.35476527,STRANDID=   1
  0.50000000E+00  0.16743122E+00  0.00000000E+00  0.25459759E+01  0.20000000E-01    1    0
 VARIABLES= X1,X2,Y1,Y2,R,ID,RK
ZONE T="  232" 
SOLUTIONTIME=     0.35786366,STRANDID=   1
  0.50000000E+00  0.17524903E+00  0.00000000E+00  0.25155911E+01  0.20000000E-01    1    0
 VARIABLES= X1,X2,Y1,Y2,R,ID,RK
ZONE T="  234" 
SOLUTIONTIME=     0.36096205,STRANDID=   1
  0.50000000E+00  0.18297270E+00  0.00000000E+00  0.24852063E+01  0.20000000E-01    1    0
 VARIABLES= X1,X2,Y1,Y2,R,ID,RK
ZONE T="  236" 
SOLUTIONTIME=     0.36406043,STRANDID=   1
  0.50000000E+00  0.19060222E+00  0.00000000E+00  0.24548215E+01  0.20000000E-01    1    0
 VARIABLES= X1,X2,Y1,Y2,R,ID,RK
ZONE T="  238" 
SOLUTIONTIME=     0.36715882,STRANDID=   1
  0.50000000E+00  0.19813760E+00  0.00000000E+00  0.24244367E+01  0.20000000E-01    1    0
 VARIABLES= X1,X2,Y1,Y2,R,ID,RK
ZONE T="  240" 
SOLUTIONTIME=     0.37025721,STRANDID=   1
  0.50000000E+00  0.20557883E+00  0.00000000E+00  0.23940519E+01  0.20000000E-01    1    0
 VARIABLES= X1,X2,Y1,Y2,R,ID,RK
ZONE T="  242" 
SOLUTIONTIME=     0.37335559,STRANDID=   1
  0.50000000E+00  0.21292592E+00  0.00000000E+00  0.23636671E+01  0.20000000E-01    1    0
 VARIABLES= X1,X2,Y1,Y2,R,ID,RK
ZONE T="  244" 
SOLUTIONTIME=     0.37645398,STRANDID=   1
  0.50000000E+00  0.22017887E+00  0.00000000E+00  0.23332823E+01  0.20000000E-01    1    0
 VARIABLES= X1,X2,Y1,Y2,R,ID,RK
ZONE T="  246" 
SOLUTIONTIME=     0.37955237,STRANDID=   1
  0.50000000E+00  0.22733767E+00  0.00000000E+00  0.23028975E+01  0.20000000E-01    1    0
 VARIABLES= X1,X2,Y1,Y2,R,ID,RK
ZONE T="  248" 
SOLUTIONTIME=     0.38265075,STRANDID=   1
  0.50000000E+00  0.23440233E+00  0.00000000E+00  0.22725127E+01  0.20000000E-01    1    0
 VARIABLES= X1,X2,Y1,Y2,R,ID,RK
ZONE T="  250" 
SOLUTIONTIME=     0.38574914,STRANDID=   1
  0.50000000E+00  0.24137285E+00  0.00000000E+00  0.22421280E+01  0.20000000E-01    1    0
 VARIABLES= X1,X2,Y1,Y2,R,ID,RK
ZONE T="  252" 
SOLUTIONTIME=     0.38884753,STRANDID=   1
  0.50000000E+00  0.24824922E+00  0.00000000E+00  0.22117432E+01  0.20000000E-01    1    0
 VARIABLES= X1,X2,Y1,Y2,R,ID,RK
ZONE T="  254" 
SOLUTIONTIME=     0.39194591,STRANDID=   1
  0.50000000E+00  0.25503145E+00  0.00000000E+00  0.21813584E+01  0.20000000E-01    1    0
 VARIABLES= X1,X2,Y1,Y2,R,ID,RK
ZONE T="  256" 
SOLUTIONTIME=     0.39504430,STRANDID=   1
  0.50000000E+00  0.26171953E+00  0.00000000E+00  0.21509736E+01  0.20000000E-01    1    0
 VARIABLES= X1,X2,Y1,Y2,R,ID,RK
ZONE T="  258" 
SOLUTIONTIME=     0.39814269,STRANDID=   1
  0.50000000E+00  0.26831347E+00  0.00000000E+00  0.21205888E+01  0.20000000E-01    1    0
 VARIABLES= X1,X2,Y1,Y2,R,ID,RK
ZONE T="  260" 
SOLUTIONTIME=     0.40124107,STRANDID=   1
  0.50000000E+00  0.27481327E+00  0.00000000E+00  0.20902040E+01  0.20000000E-01    1    0
 VARIABLES= X1,X2,Y1,Y2,R,ID,RK
ZONE T="  262" 
SOLUTIONTIME=     0.40433946,STRANDID=   1
  0.50000000E+00  0.28121892E+00  0.00000000E+00  0.20598192E+01  0.20000000E-01    1    0
 VARIABLES= X1,X2,Y1,Y2,R,ID,RK
ZONE T="  264" 
SOLUTIONTIME=     0.40743785,STRANDID=   1
  0.50000000E+00  0.28753043E+00  0.00000000E+00  0.20294344E+01  0.20000000E-01    1    0
 VARIABLES= X1,X2,Y1,Y2,R,ID,RK
ZONE T="  266" 
SOLUTIONTIME=     0.41053623,STRANDID=   1
  0.50000000E+00  0.29374779E+00  0.00000000E+00  0.19990496E+01  0.20000000E-01    1    0
 VARIABLES= X1,X2,Y1,Y2,R,ID,RK
ZONE T="  268" 
SOLUTIONTIME=     0.41363462,STRANDID=   1
  0.50000000E+00  0.29987101E+00  0.00000000E+00  0.19686648E+01  0.20000000E-01    1    0
 VARIABLES= X1,X2,Y1,Y2,R,ID,RK
ZONE T="  270" 
SOLUTIONTIME=     0.41673301,STRANDID=   1
  0.50000000E+00  0.30590009E+00  0.00000000E+00  0.19382800E+01  0.20000000E-01    1    0
 VARIABLES= X1,X2,Y1,Y2,R,ID,RK
ZONE T="  272" 
SOLUTIONTIME=     0.41983139,STRANDID=   1
  0.50000000E+00  0.31183502E+00  0.00000000E+00  0.19078952E+01  0.20000000E-01    1    0
 VARIABLES= X1,X2,Y1,Y2,R,ID,RK
ZONE T="  274" 
SOLUTIONTIME=     0.42292978,STRANDID=   1
  0.50000000E+00  0.31767581E+00  0.00000000E+00  0.18775104E+01  0.20000000E-01    1    0
 VARIABLES= X1,X2,Y1,Y2,R,ID,RK
ZONE T="  276" 
SOLUTIONTIME=     0.42602817,STRANDID=   1
  0.50000000E+00  0.32342246E+00  0.00000000E+00  0.18471256E+01  0.20000000E-01    1    0
 VARIABLES= X1,X2,Y1,Y2,R,ID,RK
ZONE T="  278" 
SOLUTIONTIME=     0.42912655,STRANDID=   1
  0.50000000E+00  0.32907496E+00  0.00000000E+00  0.18167408E+01  0.20000000E-01    1    0
 VARIABLES= X1,X2,Y1,Y2,R,ID,RK
ZONE T="  280" 
SOLUTIONTIME=     0.43222494,STRANDID=   1
  0.50000000E+00  0.33463332E+00  0.00000000E+00  0.17863561E+01  0.20000000E-01    1    0
 VARIABLES= X1,X2,Y1,Y2,R,ID,RK
ZONE T="  282" 
SOLUTIONTIME=     0.43532333,STRANDID=   1
  0.50000000E+00  0.34009753E+00  0.00000000E+00  0.17559713E+01  0.20000000E-01    1    0
 VARIABLES= X1,X2,Y1,Y2,R,ID,RK
ZONE T="  284" 
SOLUTIONTIME=     0.43842171,STRANDID=   1
  0.50000000E+00  0.34546760E+00  0.00000000E+00  0.17255865E+01  0.20000000E-01    1    0
 VARIABLES= X1,X2,Y1,Y2,R,ID,RK
ZONE T="  286" 
SOLUTIONTIME=     0.44152010,STRANDID=   1
  0.50000000E+00  0.35074353E+00  0.00000000E+00  0.16952017E+01  0.20000000E-01    1    0
 VARIABLES= X1,X2,Y1,Y2,R,ID,RK
ZONE T="  288" 
SOLUTIONTIME=     0.44461849,STRANDID=   1
  0.50000000E+00  0.35592531E+00  0.00000000E+00  0.16648169E+01  0.20000000E-01    1    0
 VARIABLES= X1,X2,Y1,Y2,R,ID,RK
ZONE T="  290" 
SOLUTIONTIME=     0.44771687,STRANDID=   1
  0.50000000E+00  0.36101295E+00  0.00000000E+00  0.16344321E+01  0.20000000E-01    1    0
 VARIABLES= X1,X2,Y1,Y2,R,ID,RK
ZONE T="  292" 
SOLUTIONTIME=     0.45081526,STRANDID=   1
  0.50000000E+00  0.36600644E+00  0.00000000E+00  0.16040473E+01  0.20000000E-01    1    0
 VARIABLES= X1,X2,Y1,Y2,R,ID,RK
ZONE T="  294" 
SOLUTIONTIME=     0.45391365,STRANDID=   1
  0.50000000E+00  0.37090579E+00  0.00000000E+00  0.15736625E+01  0.20000000E-01    1    0
 VARIABLES= X1,X2,Y1,Y2,R,ID,RK
ZONE T="  296" 
SOLUTIONTIME=     0.45701203,STRANDID=   1
  0.50000000E+00  0.37571100E+00  0.00000000E+00  0.15432777E+01  0.20000000E-01    1    0
 VARIABLES= X1,X2,Y1,Y2,R,ID,RK
ZONE T="  298" 
SOLUTIONTIME=     0.46011042,STRANDID=   1
  0.50000000E+00  0.38042206E+00  0.00000000E+00  0.15128929E+01  0.20000000E-01    1    0
 VARIABLES= X1,X2,Y1,Y2,R,ID,RK
ZONE T="  300" 
SOLUTIONTIME=     0.46320881,STRANDID=   1
  0.50000000E+00  0.38503898E+00  0.00000000E+00  0.14825081E+01  0.20000000E-01    1    0
 VARIABLES= X1,X2,Y1,Y2,R,ID,RK
ZONE T="  302" 
SOLUTIONTIME=     0.46630719,STRANDID=   1
  0.50000000E+00  0.38956176E+00  0.00000000E+00  0.14521233E+01  0.20000000E-01    1    0
 VARIABLES= X1,X2,Y1,Y2,R,ID,RK
ZONE T="  304" 
SOLUTIONTIME=     0.46940558,STRANDID=   1
  0.50000000E+00  0.39399039E+00  0.00000000E+00  0.14217385E+01  0.20000000E-01    1    0
 VARIABLES= X1,X2,Y1,Y2,R,ID,RK
ZONE T="  306" 
SOLUTIONTIME=     0.47250397,STRANDID=   1
  0.50000000E+00  0.39832488E+00  0.00000000E+00  0.13913537E+01  0.20000000E-01    1    0
 VARIABLES= X1,X2,Y1,Y2,R,ID,RK
ZONE T="  308" 
SOLUTIONTIME=     0.47560235,STRANDID=   1
  0.50000000E+00  0.40256522E+00  0.00000000E+00  0.13609689E+01  0.20000000E-01    1    0
 VARIABLES= X1,X2,Y1,Y2,R,ID,RK
ZONE T="  310" 
SOLUTIONTIME=     0.47870074,STRANDID=   1
  0.50000000E+00  0.40671142E+00  0.00000000E+00  0.13305841E+01  0.20000000E-01    1    0
 VARIABLES= X1,X2,Y1,Y2,R,ID,RK
ZONE T="  312" 
SOLUTIONTIME=     0.48179913,STRANDID=   1
  0.50000000E+00  0.41076348E+00  0.00000000E+00  0.13001994E+01  0.20000000E-01    1    0
 VARIABLES= X1,X2,Y1,Y2,R,ID,RK
ZONE T="  314" 
SOLUTIONTIME=     0.48489751,STRANDID=   1
  0.50000000E+00  0.41472139E+00  0.00000000E+00  0.12698146E+01  0.20000000E-01    1    0
 VARIABLES= X1,X2,Y1,Y2,R,ID,RK
ZONE T="  316" 
SOLUTIONTIME=     0.48799590,STRANDID=   1
  0.50000000E+00  0.41858516E+00  0.00000000E+00  0.12394298E+01  0.20000000E-01    1    0
 VARIABLES= X1,X2,Y1,Y2,R,ID,RK
ZONE T="  318" 
SOLUTIONTIME=     0.49109429,STRANDID=   1
  0.50000000E+00  0.42235479E+00  0.00000000E+00  0.12090450E+01  0.20000000E-01    1    0
 VARIABLES= X1,X2,Y1,Y2,R,ID,RK
ZONE T="  320" 
SOLUTIONTIME=     0.49419267,STRANDID=   1
  0.50000000E+00  0.42603027E+00  0.00000000E+00  0.11786602E+01  0.20000000E-01    1    0
 VARIABLES= X1,X2,Y1,Y2,R,ID,RK
ZONE T="  322" 
SOLUTIONTIME=     0.49729106,STRANDID=   1
  0.50000000E+00  0.42961160E+00  0.00000000E+00  0.11482754E+01  0.20000000E-01    1    0
 VARIABLES= X1,X2,Y1,Y2,R,ID,RK
ZONE T="  324" 
SOLUTIONTIME=     0.50038945,STRANDID=   1
  0.50000000E+00  0.43309880E+00  0.00000000E+00  0.11178906E+01  0.20000000E-01    1    0
 VARIABLES= X1,X2,Y1,Y2,R,ID,RK
ZONE T="  326" 
SOLUTIONTIME=     0.50348784,STRANDID=   1
  0.50000000E+00  0.43649185E+00  0.00000000E+00  0.10875058E+01  0.20000000E-01    1    0
 VARIABLES= X1,X2,Y1,Y2,R,ID,RK
ZONE T="  328" 
SOLUTIONTIME=     0.50658622,STRANDID=   1
  0.50000000E+00  0.43979075E+00  0.00000000E+00  0.10571210E+01  0.20000000E-01    1    0
 VARIABLES= X1,X2,Y1,Y2,R,ID,RK
ZONE T="  330" 
SOLUTIONTIME=     0.50968461,STRANDID=   1