 VARIABLES= X1,X2,Y1,Y2,R,ID,RK
ZONE T="    2" 
SOLUTIONTIME=     0.00050000,STRANDID=   1
  0.30000000E+00  0.47000000E+00  0.00000000E+00 -0.42721113E-11  0.20000000E-01    1    0
 VARIABLES= X1,X2,Y1,Y2,R,ID,RK
ZONE T="    4" 
SOLUTIONTIME=     0.00150000,STRANDID=   1
  0.30000000E+00  0.47000000E+00  0.00000000E+00 -0.42727523E-11  0.20000000E-01    1    0
 VARIABLES= X1,X2,Y1,Y2,R,ID,RK
ZONE T="    6" 
SOLUTIONTIME=     0.00250000,STRANDID=   1
  0.30000000E+00  0.47000000E+00  0.00000000E+00 -0.42736075E-11  0.20000000E-01    1    0
 VARIABLES= X1,X2,Y1,Y2,R,ID,RK
ZONE T="    8" 
SOLUTIONTIME=     0.00350000,STRANDID=   1
  0.30000000E+00  0.47000000E+00  0.00000000E+00 -0.42744610E-11  0.20000000E-01    1    0
 VARIABLES= X1,X2,Y1,Y2,R,ID,RK
ZONE T="   10" 
SOLUTIONTIME=     0.00450000,STRANDID=   1
  0.30000000E+00  0.47000000E+00  0.00000000E+00 -0.42753162E-11  0.20000000E-01    1    0
 VARIABLES= X1,X2,Y1,Y2,R,ID,RK
ZONE T="   12" 
SOLUTIONTIME=     0.00550000,STRANDID=   1
  0.30000000E+00  0.47000000E+00  0.00000000E+00 -0.42761697E-11  0.20000000E-01    1    0
 VARIABLES= X1,X2,Y1,Y2,R,ID,RK
ZONE T="   14" 
SOLUTIONTIME=     0.00650000,STRANDID=   1
  0.30000000E+00  0.47000000E+00  0.00000000E+00 -0.42770232E-11  0.20000000E-01    1    0
 VARIABLES= X1,X2,Y1,Y2,R,ID,RK
ZONE T="   16" 
SOLUTIONTIME=     0.00750000,STRANDID=   1
  0.30000000E+00  0.47000000E+00  0.00000000E+00 -0.42778767E-11  0.20000000E-01    1    0
 VARIABLES= X1,X2,Y1,Y2,R,ID,RK
ZONE T="   18" 
SOLUTIONTIME=     0.00850000,STRANDID=   1
  0.30000000E+00  0.47000000E+00  0.00000000E+00 -0.42787301E-11  0.20000000E-01    1    0
 VARIABLES= X1,X2,Y1,Y2,R,ID,RK
ZONE T="   20" 
SOLUTIONTIME=     0.00950000,STRANDID=   1
  0.30000000E+00  0.47000000E+00  0.00000000E+00 -0.42795836E-11  0.20000000E-01    1    0
 VARIABLES= X1,X2,Y1,Y2,R,ID,RK
ZONE T="   22" 
SOLUTIONTIME=     0.01050000,STRANDID=   1
  0.30000000E+00  0.47000000E+00  0.00000000E+00 -0.42804371E-11  0.20000000E-01    1    0
 VARIABLES= X1,X2,Y1,Y2,R,ID,RK
ZONE T="   24" 
SOLUTIONTIME=     0.01150000,STRANDID=   1
  0.30000000E+00  0.47000000E+00  0.00000000E+00 -0.42812906E-11  0.20000000E-01    1    0
 VARIABLES= X1,X2,Y1,Y2,R,ID,RK
ZONE T="   26" 
SOLUTIONTIME=     0.01250000,STRANDID=   1
  0.30000000E+00  0.47000000E+00  0.00000000E+00 -0.42821441E-11  0.20000000E-01    1    0
 VARIABLES= X1,X2,Y1,Y2,R,ID,RK
ZONE T="   28" 
SOLUTIONTIME=     0.01350000,STRANDID=   1
  0.30000000E+00  0.47000000E+00  0.00000000E+00 -0.42829958E-11  0.20000000E-01    1    0
 VARIABLES= X1,X2,Y1,Y2,R,ID,RK
ZONE T="   30" 
SOLUTIONTIME=     0.01450000,STRANDID=   1
  0.30000000E+00  0.47000000E+00  0.00000000E+00 -0.42838493E-11  0.20000000E-01    1    0
 VARIABLES= X1,X2,Y1,Y2,R,ID,RK
ZONE T="   32" 
SOLUTIONTIME=     0.01550000,STRANDID=   1
  0.30000000E+00  0.47000000E+00  0.00000000E+00 -0.42847028E-11  0.20000000E-01    1    0
 VARIABLES= X1,X2,Y1,Y2,R,ID,RK
ZONE T="   34" 
SOLUTIONTIME=     0.01650000,STRANDID=   1
  0.30000000E+00  0.47000000E+00  0.00000000E+00 -0.42855563E-11  0.20000000E-01    1    0
 VARIABLES= X1,X2,Y1,Y2,R,ID,RK
ZONE T="   36" 
SOLUTIONTIME=     0.01750000,STRANDID=   1
  0.30000000E+00  0.47000000E+00  0.00000000E+00 -0.42864098E-11  0.20000000E-01    1    0
 VARIABLES= X1,X2,Y1,Y2,R,ID,RK
ZONE T="   38" 
SOLUTIONTIME=     0.01850000,STRANDID=   1
  0.30000000E+00  0.47000000E+00  0.00000000E+00 -0.42872633E-11  0.20000000E-01    1    0
 VARIABLES= X1,X2,Y1,Y2,R,ID,RK
ZONE T="   40" 
SOLUTIONTIME=     0.01950000,STRANDID=   1
  0.30000000E+00  0.47000000E+00  0.00000000E+00 -0.42881167E-11  0.20000000E-01    1    0
 VARIABLES= X1,X2,Y1,Y2,R,ID,RK
ZONE T="   42" 
SOLUTIONTIME=     0.02050000,STRANDID=   1
  0.30000000E+00  0.47000000E+00  0.00000000E+00 -0.42889702E-11  0.20000000E-01    1    0
 VARIABLES= X1,X2,Y1,Y2,R,ID,RK
ZONE T="   44" 
SOLUTIONTIME=     0.02150000,STRANDID=   1
  0.30000000E+00  0.47000000E+00  0.00000000E+00 -0.42898254E-11  0.20000000E-01    1    0
 VARIABLES= X1,X2,Y1,Y2,R,ID,RK
ZONE T="   46" 
SOLUTIONTIME=     0.02250000,STRANDID=   1
  0.30000000E+00  0.47000000E+00  0.00000000E+00 -0.42906789E-11  0.20000000E-01    1    0
 VARIABLES= X1,X2,Y1,Y2,R,ID,RK
ZONE T="   48" 
SOLUTIONTIME=     0.02350000,STRANDID=   1
  0.30000000E+00  0.47000000E+00  0.00000000E+00 -0.42915324E-11  0.20000000E-01    1    0
 VARIABLES= X1,X2,Y1,Y2,R,ID,RK
ZONE T="   50" 
SOLUTIONTIME=     0.02450000,STRANDID=   1
  0.30000000E+00  0.47000000E+00  0.00000000E+00 -0.42923859E-11  0.20000000E-01    1    0
 VARIABLES= X1,X2,Y1,Y2,R,ID,RK
ZONE T="   52" 
SOLUTIONTIME=     0.02550000,STRANDID=   1
  0.30000000E+00  0.47000000E+00  0.00000000E+00 -0.42932394E-11  0.20000000E-01    1    0
 VARIABLES= X1,X2,Y1,Y2,R,ID,RK
ZONE T="   54" 
SOLUTIONTIME=     0.02650000,STRANDID=   1
  0.30000000E+00  0.47000000E+00  0.00000000E+00 -0.42940981E-11  0.20000000E-01    1    0
 VARIABLES= X1,X2,Y1,Y2,R,ID,RK
ZONE T="   56" 
SOLUTIONTIME=     0.02750000,STRANDID=   1
  0.30000000E+00  0.47000000E+00  0.00000000E+00 -0.42949550E-11  0.20000000E-01    1    0
 VARIABLES= X1,X2,Y1,Y2,R,ID,RK
ZONE T="   58" 
SOLUTIONTIME=     0.02850000,STRANDID=   1
  0.30000000E+00  0.47000000E+00  0.00000000E+00 -0.42958137E-11  0.20000000E-01    1    0
 VARIABLES= X1,X2,Y1,Y2,R,ID,RK
ZONE T="   60" 
SOLUTIONTIME=     0.02950000,STRANDID=   1
  0.30000000E+00  0.47000000E+00  0.00000000E+00 -0.42966689E-11  0.20000000E-01    1    0
 VARIABLES= X1,X2,Y1,Y2,R,ID,RK
ZONE T="   62" 
SOLUTIONTIME=     0.03050000,STRANDID=   1
  0.30000000E+00  0.47000000E+00  0.00000000E+00 -0.42975259E-11  0.20000000E-01    1    0
 VARIABLES= X1,X2,Y1,Y2,R,ID,RK
ZONE T="   64" 
SOLUTIONTIME=     0.03150000,STRANDID=   1
  0.30000000E+00  0.47000000E+00  0.00000000E+00 -0.42983828E-11  0.20000000E-01    1    0
 VARIABLES= X1,X2,Y1,Y2,R,ID,RK
ZONE T="   66" 
SOLUTIONTIME=     0.03250000,STRANDID=   1
  0.30000000E+00  0.47000000E+00  0.00000000E+00 -0.42992363E-11  0.20000000E-01    1    0
 VARIABLES= X1,X2,Y1,Y2,R,ID,RK
ZONE T="   68" 
SOLUTIONTIME=     0.03350000,STRANDID=   1
  0.30000000E+00  0.47000000E+00  0.00000000E+00 -0.43000898E-11  0.20000000E-01    1    0
 VARIABLES= X1,X2,Y1,Y2,R,ID,RK
ZONE T="   70" 
SOLUTIONTIME=     0.03450000,STRANDID=   1
  0.30000000E+00  0.47000000E+00  0.00000000E+00 -0.43009415E-11  0.20000000E-01    1    0
 VARIABLES= X1,X2,Y1,Y2,R,ID,RK
ZONE T="   72" 
SOLUTIONTIME=     0.03550000,STRANDID=   1
  0.30000000E+00  0.47000000E+00  0.00000000E+00 -0.43017916E-11  0.20000000E-01    1    0
 VARIABLES= X1,X2,Y1,Y2,R,ID,RK
ZONE T="   74" 
SOLUTIONTIME=     0.03650000,STRANDID=   1
  0.30000000E+00  0.47000000E+00  0.00000000E+00 -0.43026416E-11  0.20000000E-01    1    0
 VARIABLES= X1,X2,Y1,Y2,R,ID,RK
ZONE T="   76" 
SOLUTIONTIME=     0.03750000,STRANDID=   1
  0.30000000E+00  0.47000000E+00  0.00000000E+00 -0.43034916E-11  0.20000000E-01    1    0
 VARIABLES= X1,X2,Y1,Y2,R,ID,RK
ZONE T="   78" 
SOLUTIONTIME=     0.03850000,STRANDID=   1
  0.30000000E+00  0.47000000E+00  0.00000000E+00 -0.43043416E-11  0.20000000E-01    1    0
 VARIABLES= X1,X2,Y1,Y2,R,ID,RK
ZONE T="   80" 
SOLUTIONTIME=     0.03950000,STRANDID=   1
  0.30000000E+00  0.47000000E+00  0.00000000E+00 -0.43051934E-11  0.20000000E-01    1    0
 VARIABLES= X1,X2,Y1,Y2,R,ID,RK
ZONE T="   82" 
SOLUTIONTIME=     0.04050000,STRANDID=   1
  0.30000000E+00  0.47000000E+00  0.00000000E+00 -0.43060451E-11  0.20000000E-01    1    0
 VARIABLES= X1,X2,Y1,Y2,R,ID,RK
ZONE T="   84" 
SOLUTIONTIME=     0.04150000,STRANDID=   1
  0.30000000E+00  0.47000000E+00  0.00000000E+00 -0.43068969E-11  0.20000000E-01    1    0
 VARIABLES= X1,X2,Y1,Y2,R,ID,RK
ZONE T="   86" 
SOLUTIONTIME=     0.04250000,STRANDID=   1
  0.30000000E+00  0.47000000E+00  0.00000000E+00 -0.43077486E-11  0.20000000E-01    1    0
 VARIABLES= X1,X2,Y1,Y2,R,ID,RK
ZONE T="   88" 
SOLUTIONTIME=     0.04350000,STRANDID=   1
  0.30000000E+00  0.47000000E+00  0.00000000E+00 -0.43086021E-11  0.20000000E-01    1    0
 VARIABLES= X1,X2,Y1,Y2,R,ID,RK
ZONE T="   90" 
SOLUTIONTIME=     0.04450000,STRANDID=   1
  0.30000000E+00  0.47000000E+00  0.00000000E+00 -0.43094538E-11  0.20000000E-01    1    0
 VARIABLES= X1,X2,Y1,Y2,R,ID,RK
ZONE T="   92" 
SOLUTIONTIME=     0.04550000,STRANDID=   1
  0.30000000E+00  0.47000000E+00  0.00000000E+00 -0.43103073E-11  0.20000000E-01    1    0
 VARIABLES= X1,X2,Y1,Y2,R,ID,RK
ZONE T="   94" 
SOLUTIONTIME=     0.04650000,STRANDID=   1
  0.30000000E+00  0.47000000E+00  0.00000000E+00 -0.43111608E-11  0.20000000E-01    1    0
 VARIABLES= X1,X2,Y1,Y2,R,ID,RK
ZONE T="   96" 
SOLUTIONTIME=     0.04750000,STRANDID=   1
  0.30000000E+00  0.47000000E+00  0.00000000E+00 -0.43120143E-11  0.20000000E-01    1    0
 VARIABLES= X1,X2,Y1,Y2,R,ID,RK
ZONE T="   98" 
SOLUTIONTIME=     0.04850000,STRANDID=   1
  0.30000000E+00  0.47000000E+00  0.00000000E+00 -0.43128678E-11  0.20000000E-01    1    0
 VARIABLES= X1,X2,Y1,Y2,R,ID,RK
ZONE T="  100" 
SOLUTIONTIME=     0.04950000,STRANDID=   1
  0.30000000E+00  0.47000000E+00  0.00000000E+00 -0.43137213E-11  0.20000000E-01    1    0
 VARIABLES= X1,X2,Y1,Y2,R,ID,RK
ZONE T="  102" 
SOLUTIONTIME=     0.05050000,STRANDID=   1
  0.30000000E+00  0.47000000E+00  0.00000000E+00 -0.43145747E-11  0.20000000E-01    1    0
 VARIABLES= X1,X2,Y1,Y2,R,ID,RK
ZONE T="  104" 
SOLUTIONTIME=     0.05150000,STRANDID=   1
  0.30000000E+00  0.47000000E+00  0.00000000E+00 -0.43154282E-11  0.20000000E-01    1    0
 VARIABLES= X1,X2,Y1,Y2,R,ID,RK
ZONE T="  106" 
SOLUTIONTIME=     0.05250000,STRANDID=   1
  0.30000000E+00  0.47000000E+00  0.00000000E+00 -0.43162817E-11  0.20000000E-01    1    0
 VARIABLES= X1,X2,Y1,Y2,R,ID,RK
ZONE T="  108" 
SOLUTIONTIME=     0.05350000,STRANDID=   1
  0.30000000E+00  0.47000000E+00  0.00000000E+00 -0.43171352E-11  0.20000000E-01    1    0
 VARIABLES= X1,X2,Y1,Y2,R,ID,RK
ZONE T="  110" 
SOLUTIONTIME=     0.05450000,STRANDID=   1
  0.30000000E+00  0.47000000E+00  0.00000000E+00 -0.43179887E-11  0.20000000E-01    1    0
 VARIABLES= X1,X2,Y1,Y2,R,ID,RK
ZONE T="  112" 
SOLUTIONTIME=     0.05550000,STRANDID=   1
  0.30000000E+00  0.47000000E+00  0.00000000E+00 -0.43188422E-11  0.20000000E-01    1    0
 VARIABLES= X1,X2,Y1,Y2,R,ID,RK
ZONE T="  114" 
SOLUTIONTIME=     0.05650000,STRANDID=   1
  0.30000000E+00  0.47000000E+00  0.00000000E+00 -0.43196956E-11  0.20000000E-01    1    0
 VARIABLES= X1,X2,Y1,Y2,R,ID,RK
ZONE T="  116" 
SOLUTIONTIME=     0.05750000,STRANDID=   1
  0.30000000E+00  0.47000000E+00  0.00000000E+00 -0.43205491E-11  0.20000000E-01    1    0
 VARIABLES= X1,X2,Y1,Y2,R,ID,RK
ZONE T="  118" 
SOLUTIONTIME=     0.05850000,STRANDID=   1
  0.30000000E+00  0.47000000E+00  0.00000000E+00 -0.43214043E-11  0.20000000E-01    1    0
 VARIABLES= X1,X2,Y1,Y2,R,ID,RK
ZONE T="  120" 
SOLUTIONTIME=     0.05950000,STRANDID=   1
  0.30000000E+00  0.47000000E+00  0.00000000E+00 -0.43222561E-11  0.20000000E-01    1    0
 VARIABLES= X1,X2,Y1,Y2,R,ID,RK
ZONE T="  122" 
SOLUTIONTIME=     0.06050000,STRANDID=   1
  0.30000000E+00  0.47000000E+00  0.00000000E+00 -0.43231096E-11  0.20000000E-01    1    0
 VARIABLES= X1,X2,Y1,Y2,R,ID,RK
ZONE T="  124" 
SOLUTIONTIME=     0.06150000,STRANDID=   1
  0.30000000E+00  0.47000000E+00  0.00000000E+00 -0.43239631E-11  0.20000000E-01    1    0
 VARIABLES= X1,X2,Y1,Y2,R,ID,RK
ZONE T="  126" 
SOLUTIONTIME=     0.06250000,STRANDID=   1
  0.30000000E+00  0.47000000E+00  0.00000000E+00 -0.43248148E-11  0.20000000E-01    1    0
 VARIABLES= X1,X2,Y1,Y2,R,ID,RK
ZONE T="  128" 
SOLUTIONTIME=     0.06350000,STRANDID=   1
  0.30000000E+00  0.47000000E+00  0.00000000E+00 -0.43256666E-11  0.20000000E-01    1    0
 VARIABLES= X1,X2,Y1,Y2,R,ID,RK
ZONE T="  130" 
SOLUTIONTIME=     0.06450000,STRANDID=   1
  0.30000000E+00  0.47000000E+00  0.00000000E+00 -0.43265218E-11  0.20000000E-01    1    0
 VARIABLES= X1,X2,Y1,Y2,R,ID,RK
ZONE T="  132" 
SOLUTIONTIME=     0.06550000,STRANDID=   1
  0.30000000E+00  0.47000000E+00  0.00000000E+00 -0.43273753E-11  0.20000000E-01    1    0
 VARIABLES= X1,X2,Y1,Y2,R,ID,RK
ZONE T="  134" 
SOLUTIONTIME=     0.06650000,STRANDID=   1
  0.30000000E+00  0.47000000E+00  0.00000000E+00 -0.43282305E-11  0.20000000E-01    1    0
 VARIABLES= X1,X2,Y1,Y2,R,ID,RK
ZONE T="  136" 
SOLUTIONTIME=     0.06750000,STRANDID=   1
  0.30000000E+00  0.47000000E+00  0.00000000E+00 -0.43290840E-11  0.20000000E-01    1    0
 VARIABLES= X1,X2,Y1,Y2,R,ID,RK
ZONE T="  138" 
SOLUTIONTIME=     0.06850000,STRANDID=   1
  0.30000000E+00  0.47000000E+00  0.00000000E+00 -0.43299375E-11  0.20000000E-01    1    0
 VARIABLES= X1,X2,Y1,Y2,R,ID,RK
ZONE T="  140" 
SOLUTIONTIME=     0.06950000,STRANDID=   1
  0.30000000E+00  0.47000000E+00  0.00000000E+00 -0.43307909E-11  0.20000000E-01    1    0
 VARIABLES= X1,X2,Y1,Y2,R,ID,RK
ZONE T="  142" 
SOLUTIONTIME=     0.07050000,STRANDID=   1
  0.30000000E+00  0.47000000E+00  0.00000000E+00 -0.43316444E-11  0.20000000E-01    1    0
 VARIABLES= X1,X2,Y1,Y2,R,ID,RK
ZONE T="  144" 
SOLUTIONTIME=     0.07150000,STRANDID=   1
  0.30000000E+00  0.47000000E+00  0.00000000E+00 -0.43324979E-11  0.20000000E-01    1    0
 VARIABLES= X1,X2,Y1,Y2,R,ID,RK
ZONE T="  146" 
SOLUTIONTIME=     0.07250000,STRANDID=   1
  0.30000000E+00  0.47000000E+00  0.00000000E+00 -0.43333531E-11  0.20000000E-01    1    0
 VARIABLES= X1,X2,Y1,Y2,R,ID,RK
ZONE T="  148" 
SOLUTIONTIME=     0.07350000,STRANDID=   1
  0.30000000E+00  0.47000000E+00  0.00000000E+00 -0.43342066E-11  0.20000000E-01    1    0
 VARIABLES= X1,X2,Y1,Y2,R,ID,RK
ZONE T="  150" 
SOLUTIONTIME=     0.07450000,STRANDID=   1
  0.30000000E+00  0.47000000E+00  0.00000000E+00 -0.43350653E-11  0.20000000E-01    1    0
 VARIABLES= X1,X2,Y1,Y2,R,ID,RK
ZONE T="  152" 
SOLUTIONTIME=     0.07550000,STRANDID=   1
  0.30000000E+00  0.47000000E+00  0.00000000E+00 -0.43359240E-11  0.20000000E-01    1    0
 VARIABLES= X1,X2,Y1,Y2,R,ID,RK
ZONE T="  154" 
SOLUTIONTIME=     0.07650000,STRANDID=   1
  0.30000000E+00  0.47000000E+00  0.00000000E+00 -0.43367809E-11  0.20000000E-01    1    0
 VARIABLES= X1,X2,Y1,Y2,R,ID,RK
ZONE T="  156" 
SOLUTIONTIME=     0.07750000,STRANDID=   1
  0.30000000E+00  0.47000000E+00  0.00000000E+00 -0.43376379E-11  0.20000000E-01    1    0
 VARIABLES= X1,X2,Y1,Y2,R,ID,RK
ZONE T="  158" 
SOLUTIONTIME=     0.07850000,STRANDID=   1
  0.30000000E+00  0.47000000E+00  0.00000000E+00 -0.43384948E-11  0.20000000E-01    1    0
 VARIABLES= X1,X2,Y1,Y2,R,ID,RK
ZONE T="  160" 
SOLUTIONTIME=     0.07950000,STRANDID=   1
  0.30000000E+00  0.47000000E+00  0.00000000E+00 -0.43393518E-11  0.20000000E-01    1    0
 VARIABLES= X1,X2,Y1,Y2,R,ID,RK
ZONE T="  162" 
SOLUTIONTIME=     0.08050000,STRANDID=   1
  0.30000000E+00  0.47000000E+00  0.00000000E+00 -0.43402053E-11  0.20000000E-01    1    0
 VARIABLES= X1,X2,Y1,Y2,R,ID,RK
ZONE T="  164" 
SOLUTIONTIME=     0.08150000,STRANDID=   1
  0.30000000E+00  0.47000000E+00  0.00000000E+00 -0.43410588E-11  0.20000000E-01    1    0
 VARIABLES= X1,X2,Y1,Y2,R,ID,RK
ZONE T="  166" 
SOLUTIONTIME=     0.08250000,STRANDID=   1
  0.30000000E+00  0.47000000E+00  0.00000000E+00 -0.43419122E-11  0.20000000E-01    1    0
 VARIABLES= X1,X2,Y1,Y2,R,ID,RK
ZONE T="  168" 
SOLUTIONTIME=     0.08350000,STRANDID=   1
  0.30000000E+00  0.47000000E+00  0.00000000E+00 -0.43427675E-11  0.20000000E-01    1    0
 VARIABLES= X1,X2,Y1,Y2,R,ID,RK
ZONE T="  170" 
SOLUTIONTIME=     0.08450000,STRANDID=   1
  0.30000000E+00  0.47000000E+00  0.00000000E+00 -0.43436192E-11  0.20000000E-01    1    0
 VARIABLES= X1,X2,Y1,Y2,R,ID,RK
ZONE T="  172" 
SOLUTIONTIME=     0.08550000,STRANDID=   1
  0.30000000E+00  0.47000000E+00  0.00000000E+00 -0.43444727E-11  0.20000000E-01    1    0
 VARIABLES= X1,X2,Y1,Y2,R,ID,RK
ZONE T="  174" 
SOLUTIONTIME=     0.08650000,STRANDID=   1
  0.30000000E+00  0.47000000E+00  0.00000000E+00 -0.43453262E-11  0.20000000E-01    1    0
 VARIABLES= X1,X2,Y1,Y2,R,ID,RK
ZONE T="  176" 
SOLUTIONTIME=     0.08750000,STRANDID=   1
  0.30000000E+00  0.47000000E+00  0.00000000E+00 -0.43461814E-11  0.20000000E-01    1    0
 VARIABLES= X1,X2,Y1,Y2,R,ID,RK
ZONE T="  178" 
SOLUTIONTIME=     0.08850000,STRANDID=   1
  0.30000000E+00  0.47000000E+00  0.00000000E+00 -0.43463956E-11  0.20000000E-01    1    0
 VARIABLES= X1,X2,Y1,Y2,R,ID,RK
ZONE T="  180" 
SOLUTIONTIME=     0.08950000,STRANDID=   1
  0.30000000E+00  0.47000000E+00  0.00000000E+00 -0.43463419E-11  0.20000000E-01    1    0
 VARIABLES= X1,X2,Y1,Y2,R,ID,RK
ZONE T="  182" 
SOLUTIONTIME=     0.09050000,STRANDID=   1
  0.30000000E+00  0.47000000E+00  0.00000000E+00 -0.43463557E-11  0.20000000E-01    1    0
 VARIABLES= X1,X2,Y1,Y2,R,ID,RK
ZONE T="  184" 
SOLUTIONTIME=     0.09150000,STRANDID=   1
  0.30000000E+00  0.47000000E+00  0.00000000E+00 -0.43463514E-11  0.20000000E-01    1    0
 VARIABLES= X1,X2,Y1,Y2,R,ID,RK
ZONE T="  186" 
SOLUTIONTIME=     0.09250000,STRANDID=   1
  0.30000000E+00  0.47000000E+00  0.00000000E+00 -0.43463514E-11  0.20000000E-01    1    0
 VARIABLES= X1,X2,Y1,Y2,R,ID,RK
ZONE T="  188" 
SOLUTIONTIME=     0.09350000,STRANDID=   1
  0.30000000E+00  0.47000000E+00  0.00000000E+00 -0.43463514E-11  0.20000000E-01    1    0
 VARIABLES= X1,X2,Y1,Y2,R,ID,RK
ZONE T="  190" 
SOLUTIONTIME=     0.09450000,STRANDID=   1
  0.30000000E+00  0.47000000E+00  0.00000000E+00 -0.43463505E-11  0.20000000E-01    1    0
 VARIABLES= X1,X2,Y1,Y2,R,ID,RK
ZONE T="  192" 
SOLUTIONTIME=     0.09550000,STRANDID=   1
  0.30000000E+00  0.47000000E+00  0.00000000E+00 -0.43463505E-11  0.20000000E-01    1    0
 VARIABLES= X1,X2,Y1,Y2,R,ID,RK
ZONE T="  194" 
SOLUTIONTIME=     0.09650000,STRANDID=   1
  0.30000000E+00  0.47000000E+00  0.00000000E+00 -0.43463505E-11  0.20000000E-01    1    0
 VARIABLES= X1,X2,Y1,Y2,R,ID,RK
ZONE T="  196" 
SOLUTIONTIME=     0.09750000,STRANDID=   1
  0.30000000E+00  0.47000000E+00  0.00000000E+00 -0.43463497E-11  0.20000000E-01    1    0
 VARIABLES= X1,X2,Y1,Y2,R,ID,RK
ZONE T="  198" 
SOLUTIONTIME=     0.09850000,STRANDID=   1
  0.30000000E+00  0.47000000E+00  0.00000000E+00 -0.43463505E-11  0.20000000E-01    1    0
 VARIABLES= X1,X2,Y1,Y2,R,ID,RK
ZONE T="  200" 
SOLUTIONTIME=     0.09950000,STRANDID=   1
  0.30000000E+00  0.47000000E+00  0.00000000E+00 -0.43463505E-11  0.20000000E-01    1    0
 VARIABLES= X1,X2,Y1,Y2,R,ID,RK
ZONE T="  202" 
SOLUTIONTIME=     0.10050000,STRANDID=   1
  0.30000000E+00  0.47000000E+00  0.00000000E+00 -0.43463505E-11  0.20000000E-01    1    0
 VARIABLES= X1,X2,Y1,Y2,R,ID,RK
ZONE T="  204" 
SOLUTIONTIME=     0.10150000,STRANDID=   1
  0.30000000E+00  0.47000000E+00  0.00000000E+00 -0.43463505E-11  0.20000000E-01    1    0
 VARIABLES= X1,X2,Y1,Y2,R,ID,RK
ZONE T="  206" 
SOLUTIONTIME=     0.10250000,STRANDID=   1
  0.30000000E+00  0.47000000E+00  0.00000000E+00 -0.43463505E-11  0.20000000E-01    1    0
 VARIABLES= X1,X2,Y1,Y2,R,ID,RK
ZONE T="  208" 
SOLUTIONTIME=     0.10350000,STRANDID=   1
  0.30000000E+00  0.47000000E+00  0.00000000E+00 -0.43463505E-11  0.20000000E-01    1    0
 VARIABLES= X1,X2,Y1,Y2,R,ID,RK
ZONE T="  210" 
SOLUTIONTIME=     0.10450000,STRANDID=   1
  0.30000000E+00  0.47000000E+00  0.00000000E+00 -0.43463497E-11  0.20000000E-01    1    0
 VARIABLES= X1,X2,Y1,Y2,R,ID,RK
ZONE T="  212" 
SOLUTIONTIME=     0.10550001,STRANDID=   1
  0.30000000E+00  0.47000000E+00  0.00000000E+00 -0.43463497E-11  0.20000000E-01    1    0
 VARIABLES= X1,X2,Y1,Y2,R,ID,RK
ZONE T="  214" 
SOLUTIONTIME=     0.10650001,STRANDID=   1
  0.30000000E+00  0.47000000E+00  0.00000000E+00 -0.43463497E-11  0.20000000E-01    1    0
 VARIABLES= X1,X2,Y1,Y2,R,ID,RK
ZONE T="  216" 
SOLUTIONTIME=     0.10750001,STRANDID=   1
  0.30000000E+00  0.47000000E+00  0.00000000E+00 -0.43463505E-11  0.20000000E-01    1    0
 VARIABLES= X1,X2,Y1,Y2,R,ID,RK
ZONE T="  218" 
SOLUTIONTIME=     0.10850001,STRANDID=   1
  0.30000000E+00  0.47000000E+00  0.00000000E+00 -0.43463505E-11  0.20000000E-01    1    0
 VARIABLES= X1,X2,Y1,Y2,R,ID,RK
ZONE T="  220" 
SOLUTIONTIME=     0.10950001,STRANDID=   1
  0.30000000E+00  0.47000000E+00  0.00000000E+00 -0.43463505E-11  0.20000000E-01    1    0
 VARIABLES= X1,X2,Y1,Y2,R,ID,RK
ZONE T="  222" 
SOLUTIONTIME=     0.11050001,STRANDID=   1
  0.30000000E+00  0.47000000E+00  0.00000000E+00 -0.43463505E-11  0.20000000E-01    1    0
 VARIABLES= X1,X2,Y1,Y2,R,ID,RK
ZONE T="  224" 
SOLUTIONTIME=     0.11150001,STRANDID=   1
  0.30000000E+00  0.47000000E+00  0.00000000E+00 -0.43463505E-11  0.20000000E-01    1    0
 VARIABLES= X1,X2,Y1,Y2,R,ID,RK
ZONE T="  226" 
SOLUTIONTIME=     0.11250001,STRANDID=   1
  0.30000000E+00  0.47000000E+00  0.00000000E+00 -0.43463505E-11  0.20000000E-01    1    0
 VARIABLES= X1,X2,Y1,Y2,R,ID,RK
ZONE T="  228" 
SOLUTIONTIME=     0.11350001,STRANDID=   1
  0.30000000E+00  0.47000000E+00  0.00000000E+00 -0.43463514E-11  0.20000000E-01    1    0
 VARIABLES= X1,X2,Y1,Y2,R,ID,RK
ZONE T="  230" 
SOLUTIONTIME=     0.11450001,STRANDID=   1
  0.30000000E+00  0.47000000E+00  0.00000000E+00 -0.43463514E-11  0.20000000E-01    1    0
 VARIABLES= X1,X2,Y1,Y2,R,ID,RK
ZONE T="  232" 
SOLUTIONTIME=     0.11550001,STRANDID=   1
  0.30000000E+00  0.47000000E+00  0.00000000E+00 -0.43463514E-11  0.20000000E-01    1    0
 VARIABLES= X1,X2,Y1,Y2,R,ID,RK
ZONE T="  234" 
SOLUTIONTIME=     0.11650001,STRANDID=   1
  0.30000000E+00  0.47000000E+00  0.00000000E+00 -0.43463505E-11  0.20000000E-01    1    0
 VARIABLES= X1,X2,Y1,Y2,R,ID,RK
ZONE T="  236" 
SOLUTIONTIME=     0.11750001,STRANDID=   1
  0.30000000E+00  0.47000000E+00  0.00000000E+00 -0.43463505E-11  0.20000000E-01    1    0
 VARIABLES= X1,X2,Y1,Y2,R,ID,RK
ZONE T="  238" 
SOLUTIONTIME=     0.11850001,STRANDID=   1
  0.30000000E+00  0.47000000E+00  0.00000000E+00 -0.43463505E-11  0.20000000E-01    1    0
 VARIABLES= X1,X2,Y1,Y2,R,ID,RK
ZONE T="  240" 
SOLUTIONTIME=     0.11950001,STRANDID=   1
  0.30000000E+00  0.47000000E+00  0.00000000E+00 -0.43463505E-11  0.20000000E-01    1    0
 VARIABLES= X1,X2,Y1,Y2,R,ID,RK
ZONE T="  242" 
SOLUTIONTIME=     0.12050001,STRANDID=   1
  0.30000000E+00  0.47000000E+00  0.00000000E+00 -0.43463505E-11  0.20000000E-01    1    0
 VARIABLES= X1,X2,Y1,Y2,R,ID,RK
ZONE T="  244" 
SOLUTIONTIME=     0.12150001,STRANDID=   1
  0.30000000E+00  0.47000000E+00  0.00000000E+00 -0.43463505E-11  0.20000000E-01    1    0
 VARIABLES= X1,X2,Y1,Y2,R,ID,RK
ZONE T="  246" 
SOLUTIONTIME=     0.12250001,STRANDID=   1
  0.30000000E+00  0.47000000E+00  0.00000000E+00 -0.43463505E-11  0.20000000E-01    1    0
 VARIABLES= X1,X2,Y1,Y2,R,ID,RK
ZONE T="  248" 
SOLUTIONTIME=     0.12350001,STRANDID=   1
  0.30000000E+00  0.47000000E+00  0.00000000E+00 -0.43463505E-11  0.20000000E-01    1    0
 VARIABLES= X1,X2,Y1,Y2,R,ID,RK
ZONE T="  250" 
SOLUTIONTIME=     0.12450001,STRANDID=   1
  0.30000000E+00  0.47000000E+00  0.00000000E+00 -0.43463505E-11  0.20000000E-01    1    0
 VARIABLES= X1,X2,Y1,Y2,R,ID,RK
ZONE T="  252" 
SOLUTIONTIME=     0.12550001,STRANDID=   1
  0.30000000E+00  0.47000000E+00  0.00000000E+00 -0.43463514E-11  0.20000000E-01    1    0
 VARIABLES= X1,X2,Y1,Y2,R,ID,RK
ZONE T="  254" 
SOLUTIONTIME=     0.12650001,STRANDID=   1
  0.30000000E+00  0.47000000E+00  0.00000000E+00 -0.43463514E-11  0.20000000E-01    1    0
 VARIABLES= X1,X2,Y1,Y2,R,ID,RK
ZONE T="  256" 
SOLUTIONTIME=     0.12750001,STRANDID=   1
  0.30000000E+00  0.47000000E+00  0.00000000E+00 -0.43463514E-11  0.20000000E-01    1    0
 VARIABLES= X1,X2,Y1,Y2,R,ID,RK
ZONE T="  258" 
SOLUTIONTIME=     0.12850001,STRANDID=   1
  0.30000000E+00  0.47000000E+00  0.00000000E+00 -0.43463514E-11  0.20000000E-01    1    0
 VARIABLES= X1,X2,Y1,Y2,R,ID,RK
ZONE T="  260" 
SOLUTIONTIME=     0.12950001,STRANDID=   1
  0.30000000E+00  0.47000000E+00  0.00000000E+00 -0.43463497E-11  0.20000000E-01    1    0
 VARIABLES= X1,X2,Y1,Y2,R,ID,RK
ZONE T="  262" 
SOLUTIONTIME=     0.13050001,STRANDID=   1
  0.30000000E+00  0.47000000E+00  0.00000000E+00 -0.43463497E-11  0.20000000E-01    1    0
 VARIABLES= X1,X2,Y1,Y2,R,ID,RK
ZONE T="  264" 
SOLUTIONTIME=     0.13150001,STRANDID=   1
  0.30000000E+00  0.47000000E+00  0.00000000E+00 -0.43463488E-11  0.20000000E-01    1    0
 VARIABLES= X1,X2,Y1,Y2,R,ID,RK
ZONE T="  266" 
SOLUTIONTIME=     0.13250001,STRANDID=   1
  0.30000000E+00  0.47000000E+00  0.00000000E+00 -0.43463488E-11  0.20000000E-01    1    0
 VARIABLES= X1,X2,Y1,Y2,R,ID,RK
ZONE T="  268" 
SOLUTIONTIME=     0.13350001,STRANDID=   1
  0.30000000E+00  0.47000000E+00  0.00000000E+00 -0.43463479E-11  0.20000000E-01    1    0
 VARIABLES= X1,X2,Y1,Y2,R,ID,RK
ZONE T="  270" 
SOLUTIONTIME=     0.13450001,STRANDID=   1
  0.30000000E+00  0.47000000E+00  0.00000000E+00 -0.43463488E-11  0.20000000E-01    1    0
 VARIABLES= X1,X2,Y1,Y2,R,ID,RK
ZONE T="  272" 
SOLUTIONTIME=     0.13550001,STRANDID=   1
  0.30000000E+00  0.47000000E+00  0.00000000E+00 -0.43463497E-11  0.20000000E-01    1    0
 VARIABLES= X1,X2,Y1,Y2,R,ID,RK
ZONE T="  274" 
SOLUTIONTIME=     0.13650001,STRANDID=   1
  0.30000000E+00  0.47000000E+00  0.00000000E+00 -0.43463505E-11  0.20000000E-01    1    0
 VARIABLES= X1,X2,Y1,Y2,R,ID,RK
ZONE T="  276" 
SOLUTIONTIME=     0.13750001,STRANDID=   1
  0.30000000E+00  0.47000000E+00  0.00000000E+00 -0.43463514E-11  0.20000000E-01    1    0
 VARIABLES= X1,X2,Y1,Y2,R,ID,RK
ZONE T="  278" 
SOLUTIONTIME=     0.13850001,STRANDID=   1
  0.30000000E+00  0.47000000E+00  0.00000000E+00 -0.43463514E-11  0.20000000E-01    1    0
 VARIABLES= X1,X2,Y1,Y2,R,ID,RK
ZONE T="  280" 
SOLUTIONTIME=     0.13950001,STRANDID=   1
  0.30000000E+00  0.47000000E+00  0.00000000E+00 -0.43463514E-11  0.20000000E-01    1    0
 VARIABLES= X1,X2,Y1,Y2,R,ID,RK
ZONE T="  282" 
SOLUTIONTIME=     0.14050001,STRANDID=   1
  0.30000000E+00  0.47000000E+00  0.00000000E+00 -0.43463514E-11  0.20000000E-01    1    0
 VARIABLES= X1,X2,Y1,Y2,R,ID,RK
ZONE T="  284" 
SOLUTIONTIME=     0.14150001,STRANDID=   1
  0.30000000E+00  0.47000000E+00  0.00000000E+00 -0.43463514E-11  0.20000000E-01    1    0
 VARIABLES= X1,X2,Y1,Y2,R,ID,RK
ZONE T="  286" 
SOLUTIONTIME=     0.14250001,STRANDID=   1
  0.30000000E+00  0.47000000E+00  0.00000000E+00 -0.43463514E-11  0.20000000E-01    1    0
 VARIABLES= X1,X2,Y1,Y2,R,ID,RK
ZONE T="  288" 
SOLUTIONTIME=     0.14350001,STRANDID=   1
  0.30000000E+00  0.47000000E+00  0.00000000E+00 -0.43463505E-11  0.20000000E-01    1    0
 VARIABLES= X1,X2,Y1,Y2,R,ID,RK
ZONE T="  290" 
SOLUTIONTIME=     0.14450001,STRANDID=   1
  0.30000000E+00  0.47000000E+00  0.00000000E+00 -0.43463505E-11  0.20000000E-01    1    0
 VARIABLES= X1,X2,Y1,Y2,R,ID,RK
ZONE T="  292" 
SOLUTIONTIME=     0.14550001,STRANDID=   1
  0.30000000E+00  0.47000000E+00  0.00000000E+00 -0.17835954E-11  0.20000000E-01    1    0
 VARIABLES= X1,X2,Y1,Y2,R,ID,RK
ZONE T="  294" 
SOLUTIONTIME=     0.14650001,STRANDID=   1
  0.30000000E+00  0.47000000E+00  0.00000000E+00 -0.43470540E-11  0.20000000E-01    1    0
 VARIABLES= X1,X2,Y1,Y2,R,ID,RK
ZONE T="  296" 
SOLUTIONTIME=     0.14750001,STRANDID=   1
  0.30000000E+00  0.47000000E+00  0.00000000E+00 -0.55298379E-11  0.20000000E-01    1    0
 VARIABLES= X1,X2,Y1,Y2,R,ID,RK
ZONE T="  298" 
SOLUTIONTIME=     0.14850001,STRANDID=   1
  0.30000000E+00  0.47000000E+00  0.00000000E+00 -0.22109155E-11  0.20000000E-01    1    0
 VARIABLES= X1,X2,Y1,Y2,R,ID,RK
ZONE T="  300" 
SOLUTIONTIME=     0.14950001,STRANDID=   1
  0.30000000E+00  0.47000000E+00  0.00000000E+00 -0.43470566E-11  0.20000000E-01    1    0
 VARIABLES= X1,X2,Y1,Y2,R,ID,RK
ZONE T="  302" 
SOLUTIONTIME=     0.15050001,STRANDID=   1
  0.30000000E+00  0.47000000E+00  0.00000000E+00 -0.55493782E-11  0.20000000E-01    1    0
 VARIABLES= X1,X2,Y1,Y2,R,ID,RK
ZONE T="  304" 
SOLUTIONTIME=     0.15150001,STRANDID=   1
  0.30000000E+00  0.47000000E+00  0.00000000E+00 -0.22109176E-11  0.20000000E-01    1    0
 VARIABLES= X1,X2,Y1,Y2,R,ID,RK
ZONE T="  306" 
SOLUTIONTIME=     0.15250001,STRANDID=   1
  0.30000000E+00  0.47000000E+00  0.00000000E+00 -0.43470566E-11  0.20000000E-01    1    0
 VARIABLES= X1,X2,Y1,Y2,R,ID,RK
ZONE T="  308" 
SOLUTIONTIME=     0.15350001,STRANDID=   1
  0.30000000E+00  0.47000000E+00  0.00000000E+00 -0.55531166E-11  0.20000000E-01    1    0
 VARIABLES= X1,X2,Y1,Y2,R,ID,RK
ZONE T="  310" 
SOLUTIONTIME=     0.15450001,STRANDID=   1
  0.30000000E+00  0.47000000E+00  0.00000000E+00 -0.22109168E-11  0.20000000E-01    1    0
 VARIABLES= X1,X2,Y1,Y2,R,ID,RK
ZONE T="  312" 
SOLUTIONTIME=     0.15550001,STRANDID=   1
  0.30000000E+00  0.47000000E+00  0.00000000E+00 -0.43470566E-11  0.20000000E-01    1    0
 VARIABLES= X1,X2,Y1,Y2,R,ID,RK
ZONE T="  314" 
SOLUTIONTIME=     0.15650001,STRANDID=   1
  0.30000000E+00  0.47000000E+00  0.00000000E+00 -0.55538334E-11  0.20000000E-01    1    0
 VARIABLES= X1,X2,Y1,Y2,R,ID,RK
ZONE T="  316" 
SOLUTIONTIME=     0.15750001,STRANDID=   1
  0.30000000E+00  0.47000000E+00  0.00000000E+00 -0.22109168E-11  0.20000000E-01    1    0
 VARIABLES= X1,X2,Y1,Y2,R,ID,RK
ZONE T="  318" 
SOLUTIONTIME=     0.15850001,STRANDID=   1
  0.30000000E+00  0.47000000E+00  0.00000000E+00 -0.43470566E-11  0.20000000E-01    1    0
 VARIABLES= X1,X2,Y1,Y2,R,ID,RK
ZONE T="  320" 
SOLUTIONTIME=     0.15950001,STRANDID=   1
  0.30000000E+00  0.47000000E+00  0.00000000E+00 -0.55539700E-11  0.20000000E-01    1    0
 VARIABLES= X1,X2,Y1,Y2,R,ID,RK
ZONE T="  322" 
SOLUTIONTIME=     0.16050001,STRANDID=   1
  0.30000000E+00  0.47000000E+00  0.00000000E+00 -0.22109181E-11  0.20000000E-01    1    0
 VARIABLES= X1,X2,Y1,Y2,R,ID,RK
ZONE T="  324" 
SOLUTIONTIME=     0.16150001,STRANDID=   1
  0.30000000E+00  0.47000000E+00  0.00000000E+00 -0.43470574E-11  0.20000000E-01    1    0
 VARIABLES= X1,X2,Y1,Y2,R,ID,RK
ZONE T="  326" 
SOLUTIONTIME=     0.16250001,STRANDID=   1
  0.30000000E+00  0.47000000E+00  0.00000000E+00 -0.55539969E-11  0.20000000E-01    1    0
 VARIABLES= X1,X2,Y1,Y2,R,ID,RK
ZONE T="  328" 
SOLUTIONTIME=     0.16350001,STRANDID=   1
  0.30000000E+00  0.47000000E+00  0.00000000E+00 -0.22109176E-11  0.20000000E-01    1    0
 VARIABLES= X1,X2,Y1,Y2,R,ID,RK
ZONE T="  330" 
SOLUTIONTIME=     0.16450001,STRANDID=   1