 VARIABLES= X1,X2,Y1,Y2,R,ID,RK
ZONE T="    2" 
SOLUTIONTIME=     0.00025000,STRANDID=   1
  0.40000000E+00  0.24999816E+00  0.00000000E+00 -0.49033252E-02  0.20000000E-01    1    0
  0.40000000E+00  0.44999816E+00  0.00000000E+00 -0.49033252E-02  0.20000000E-01    2    0
 VARIABLES= X1,X2,Y1,Y2,R,ID,RK
ZONE T="    4" 
SOLUTIONTIME=     0.00075000,STRANDID=   1
  0.40000000E+00  0.24999387E+00  0.00000000E+00 -0.98066505E-02  0.20000000E-01    1    0
  0.40000000E+00  0.44999387E+00  0.00000000E+00 -0.98066505E-02  0.20000000E-01    2    0
 VARIABLES= X1,X2,Y1,Y2,R,ID,RK
ZONE T="    6" 
SOLUTIONTIME=     0.00125000,STRANDID=   1
  0.40000000E+00  0.24998713E+00  0.00000000E+00 -0.14709976E-01  0.20000000E-01    1    0
  0.40000000E+00  0.44998713E+00  0.00000000E+00 -0.14709976E-01  0.20000000E-01    2    0
 VARIABLES= X1,X2,Y1,Y2,R,ID,RK
ZONE T="    8" 
SOLUTIONTIME=     0.00175000,STRANDID=   1
  0.40000000E+00  0.24997794E+00  0.00000000E+00 -0.19613301E-01  0.20000000E-01    1    0
  0.40000000E+00  0.44997794E+00  0.00000000E+00 -0.19613301E-01  0.20000000E-01    2    0
 VARIABLES= X1,X2,Y1,Y2,R,ID,RK
ZONE T="   10" 
SOLUTIONTIME=     0.00225000,STRANDID=   1
  0.40000000E+00  0.24996629E+00  0.00000000E+00 -0.24516626E-01  0.20000000E-01    1    0
  0.40000000E+00  0.44996629E+00  0.00000000E+00 -0.24516626E-01  0.20000000E-01    2    0
 VARIABLES= X1,X2,Y1,Y2,R,ID,RK
ZONE T="   12" 
SOLUTIONTIME=     0.00275000,STRANDID=   1
  0.40000000E+00  0.24995219E+00  0.00000000E+00 -0.29419951E-01  0.20000000E-01    1    0
  0.40000000E+00  0.44995219E+00  0.00000000E+00 -0.29419951E-01  0.20000000E-01    2    0
 VARIABLES= X1,X2,Y1,Y2,R,ID,RK
ZONE T="   14" 
SOLUTIONTIME=     0.00325000,STRANDID=   1
  0.40000000E+00  0.24993564E+00  0.00000000E+00 -0.34323277E-01  0.20000000E-01    1    0
  0.40000000E+00  0.44993564E+00  0.00000000E+00 -0.34323277E-01  0.20000000E-01    2    0
 VARIABLES= X1,X2,Y1,Y2,R,ID,RK
ZONE T="   16" 
SOLUTIONTIME=     0.00375000,STRANDID=   1
  0.40000000E+00  0.24991664E+00  0.00000000E+00 -0.39226602E-01  0.20000000E-01    1    0
  0.40000000E+00  0.44991664E+00  0.00000000E+00 -0.39226602E-01  0.20000000E-01    2    0
 VARIABLES= X1,X2,Y1,Y2,R,ID,RK
ZONE T="   18" 
SOLUTIONTIME=     0.00425000,STRANDID=   1
  0.40000000E+00  0.24989519E+00  0.00000000E+00 -0.44129927E-01  0.20000000E-01    1    0
  0.40000000E+00  0.44989519E+00  0.00000000E+00 -0.44129927E-01  0.20000000E-01    2    0
 VARIABLES= X1,X2,Y1,Y2,R,ID,RK
ZONE T="   20" 
SOLUTIONTIME=     0.00475000,STRANDID=   1
  0.40000000E+00  0.24987129E+00  0.00000000E+00 -0.49033252E-01  0.20000000E-01    1    0
  0.40000000E+00  0.44987129E+00  0.00000000E+00 -0.49033252E-01  0.20000000E-01    2    0
 VARIABLES= X1,X2,Y1,Y2,R,ID,RK
ZONE T="   22" 
SOLUTIONTIME=     0.00525000,STRANDID=   1
  0.40000000E+00  0.24984493E+00  0.00000000E+00 -0.53936578E-01  0.20000000E-01    1    0
  0.40000000E+00  0.44984493E+00  0.00000000E+00 -0.53936578E-01  0.20000000E-01    2    0
 VARIABLES= X1,X2,Y1,Y2,R,ID,RK
ZONE T="   24" 
SOLUTIONTIME=     0.00575000,STRANDID=   1
  0.40000000E+00  0.24981613E+00  0.00000000E+00 -0.58839903E-01  0.20000000E-01    1    0
  0.40000000E+00  0.44981613E+00  0.00000000E+00 -0.58839903E-01  0.20000000E-01    2    0
 VARIABLES= X1,X2,Y1,Y2,R,ID,RK
ZONE T="   26" 
SOLUTIONTIME=     0.00625000,STRANDID=   1
  0.40000000E+00  0.24978487E+00  0.00000000E+00 -0.63743228E-01  0.20000000E-01    1    0
  0.40000000E+00  0.44978487E+00  0.00000000E+00 -0.63743228E-01  0.20000000E-01    2    0
 VARIABLES= X1,X2,Y1,Y2,R,ID,RK
ZONE T="   28" 
SOLUTIONTIME=     0.00675000,STRANDID=   1
  0.40000000E+00  0.24975116E+00  0.00000000E+00 -0.68646553E-01  0.20000000E-01    1    0
  0.40000000E+00  0.44975116E+00  0.00000000E+00 -0.68646553E-01  0.20000000E-01    2    0
 VARIABLES= X1,X2,Y1,Y2,R,ID,RK
ZONE T="   30" 
SOLUTIONTIME=     0.00725000,STRANDID=   1
  0.40000000E+00  0.24971499E+00  0.00000000E+00 -0.73549878E-01  0.20000000E-01    1    0
  0.40000000E+00  0.44971499E+00  0.00000000E+00 -0.73549878E-01  0.20000000E-01    2    0
 VARIABLES= X1,X2,Y1,Y2,R,ID,RK
ZONE T="   32" 
SOLUTIONTIME=     0.00775000,STRANDID=   1
  0.40000000E+00  0.24967638E+00  0.00000000E+00 -0.78453204E-01  0.20000000E-01    1    0
  0.40000000E+00  0.44967638E+00  0.00000000E+00 -0.78453204E-01  0.20000000E-01    2    0
 VARIABLES= X1,X2,Y1,Y2,R,ID,RK
ZONE T="   34" 
SOLUTIONTIME=     0.00825000,STRANDID=   1
  0.40000000E+00  0.24963532E+00  0.00000000E+00 -0.83356529E-01  0.20000000E-01    1    0
  0.40000000E+00  0.44963532E+00  0.00000000E+00 -0.83356529E-01  0.20000000E-01    2    0
 VARIABLES= X1,X2,Y1,Y2,R,ID,RK
ZONE T="   36" 
SOLUTIONTIME=     0.00875000,STRANDID=   1
  0.40000000E+00  0.24959180E+00  0.00000000E+00 -0.88259854E-01  0.20000000E-01    1    0
  0.40000000E+00  0.44959180E+00  0.00000000E+00 -0.88259854E-01  0.20000000E-01    2    0
 VARIABLES= X1,X2,Y1,Y2,R,ID,RK
ZONE T="   38" 
SOLUTIONTIME=     0.00925000,STRANDID=   1
  0.40000000E+00  0.24954583E+00  0.00000000E+00 -0.93163179E-01  0.20000000E-01    1    0
  0.40000000E+00  0.44954583E+00  0.00000000E+00 -0.93163179E-01  0.20000000E-01    2    0
 VARIABLES= X1,X2,Y1,Y2,R,ID,RK
ZONE T="   40" 
SOLUTIONTIME=     0.00975000,STRANDID=   1
  0.40000000E+00  0.24949741E+00  0.00000000E+00 -0.98066505E-01  0.20000000E-01    1    0
  0.40000000E+00  0.44949741E+00  0.00000000E+00 -0.98066505E-01  0.20000000E-01    2    0
 VARIABLES= X1,X2,Y1,Y2,R,ID,RK
ZONE T="   42" 
SOLUTIONTIME=     0.01025000,STRANDID=   1
  0.40000000E+00  0.24944654E+00  0.00000000E+00 -0.10296983E+00  0.20000000E-01    1    0
  0.40000000E+00  0.44944654E+00  0.00000000E+00 -0.10296983E+00  0.20000000E-01    2    0
 VARIABLES= X1,X2,Y1,Y2,R,ID,RK
ZONE T="   44" 
SOLUTIONTIME=     0.01075000,STRANDID=   1
  0.40000000E+00  0.24939321E+00  0.00000000E+00 -0.10787316E+00  0.20000000E-01    1    0
  0.40000000E+00  0.44939321E+00  0.00000000E+00 -0.10787316E+00  0.20000000E-01    2    0
 VARIABLES= X1,X2,Y1,Y2,R,ID,RK
ZONE T="   46" 
SOLUTIONTIME=     0.01125000,STRANDID=   1
  0.40000000E+00  0.24933744E+00  0.00000000E+00 -0.11277648E+00  0.20000000E-01    1    0
  0.40000000E+00  0.44933744E+00  0.00000000E+00 -0.11277648E+00  0.20000000E-01    2    0
 VARIABLES= X1,X2,Y1,Y2,R,ID,RK
ZONE T="   48" 
SOLUTIONTIME=     0.01175000,STRANDID=   1
  0.40000000E+00  0.24927921E+00  0.00000000E+00 -0.11767981E+00  0.20000000E-01    1    0
  0.40000000E+00  0.44927921E+00  0.00000000E+00 -0.11767981E+00  0.20000000E-01    2    0
 VARIABLES= X1,X2,Y1,Y2,R,ID,RK
ZONE T="   50" 
SOLUTIONTIME=     0.01225000,STRANDID=   1
  0.40000000E+00  0.24921853E+00  0.00000000E+00 -0.12258313E+00  0.20000000E-01    1    0
  0.40000000E+00  0.44921853E+00  0.00000000E+00 -0.12258313E+00  0.20000000E-01    2    0
 VARIABLES= X1,X2,Y1,Y2,R,ID,RK
ZONE T="   52" 
SOLUTIONTIME=     0.01275000,STRANDID=   1
  0.40000000E+00  0.24915540E+00  0.00000000E+00 -0.12748646E+00  0.20000000E-01    1    0
  0.40000000E+00  0.44915540E+00  0.00000000E+00 -0.12748646E+00  0.20000000E-01    2    0
 VARIABLES= X1,X2,Y1,Y2,R,ID,RK
ZONE T="   54" 
SOLUTIONTIME=     0.01325000,STRANDID=   1
  0.40000000E+00  0.24908982E+00  0.00000000E+00 -0.13238978E+00  0.20000000E-01    1    0
  0.40000000E+00  0.44908982E+00  0.00000000E+00 -0.13238978E+00  0.20000000E-01    2    0
 VARIABLES= X1,X2,Y1,Y2,R,ID,RK
ZONE T="   56" 
SOLUTIONTIME=     0.01375000,STRANDID=   1
  0.40000000E+00  0.24902179E+00  0.00000000E+00 -0.13729311E+00  0.20000000E-01    1    0
  0.40000000E+00  0.44902179E+00  0.00000000E+00 -0.13729311E+00  0.20000000E-01    2    0
 VARIABLES= X1,X2,Y1,Y2,R,ID,RK
ZONE T="   58" 
SOLUTIONTIME=     0.01425000,STRANDID=   1
  0.40000000E+00  0.24895130E+00  0.00000000E+00 -0.14219643E+00  0.20000000E-01    1    0
  0.40000000E+00  0.44895130E+00  0.00000000E+00 -0.14219643E+00  0.20000000E-01    2    0
 VARIABLES= X1,X2,Y1,Y2,R,ID,RK
ZONE T="   60" 
SOLUTIONTIME=     0.01475000,STRANDID=   1
  0.40000000E+00  0.24887836E+00  0.00000000E+00 -0.14709976E+00  0.20000000E-01    1    0
  0.40000000E+00  0.44887836E+00  0.00000000E+00 -0.14709976E+00  0.20000000E-01    2    0
 VARIABLES= X1,X2,Y1,Y2,R,ID,RK
ZONE T="   62" 
SOLUTIONTIME=     0.01525000,STRANDID=   1
  0.40000000E+00  0.24880298E+00  0.00000000E+00 -0.15200308E+00  0.20000000E-01    1    0
  0.40000000E+00  0.44880298E+00  0.00000000E+00 -0.15200308E+00  0.20000000E-01    2    0
 VARIABLES= X1,X2,Y1,Y2,R,ID,RK
ZONE T="   64" 
SOLUTIONTIME=     0.01575000,STRANDID=   1
  0.40000000E+00  0.24872514E+00  0.00000000E+00 -0.15690641E+00  0.20000000E-01    1    0
  0.40000000E+00  0.44872514E+00  0.00000000E+00 -0.15690641E+00  0.20000000E-01    2    0
 VARIABLES= X1,X2,Y1,Y2,R,ID,RK
ZONE T="   66" 
SOLUTIONTIME=     0.01625000,STRANDID=   1
  0.40000000E+00  0.24864484E+00  0.00000000E+00 -0.16180973E+00  0.20000000E-01    1    0
  0.40000000E+00  0.44864484E+00  0.00000000E+00 -0.16180973E+00  0.20000000E-01    2    0
 VARIABLES= X1,X2,Y1,Y2,R,ID,RK
ZONE T="   68" 
SOLUTIONTIME=     0.01675000,STRANDID=   1
  0.40000000E+00  0.24856210E+00  0.00000000E+00 -0.16671306E+00  0.20000000E-01    1    0
  0.40000000E+00  0.44856210E+00  0.00000000E+00 -0.16671306E+00  0.20000000E-01    2    0
 VARIABLES= X1,X2,Y1,Y2,R,ID,RK
ZONE T="   70" 
SOLUTIONTIME=     0.01725000,STRANDID=   1
  0.40000000E+00  0.24847690E+00  0.00000000E+00 -0.17161638E+00  0.20000000E-01    1    0
  0.40000000E+00  0.44847690E+00  0.00000000E+00 -0.17161638E+00  0.20000000E-01    2    0
 VARIABLES= X1,X2,Y1,Y2,R,ID,RK
ZONE T="   72" 
SOLUTIONTIME=     0.01775000,STRANDID=   1
  0.40000000E+00  0.24838926E+00  0.00000000E+00 -0.17651971E+00  0.20000000E-01    1    0
  0.40000000E+00  0.44838926E+00  0.00000000E+00 -0.17651971E+00  0.20000000E-01    2    0
 VARIABLES= X1,X2,Y1,Y2,R,ID,RK
ZONE T="   74" 
SOLUTIONTIME=     0.01825000,STRANDID=   1
  0.40000000E+00  0.24829916E+00  0.00000000E+00 -0.18142303E+00  0.20000000E-01    1    0
  0.40000000E+00  0.44829916E+00  0.00000000E+00 -0.18142303E+00  0.20000000E-01    2    0
 VARIABLES= X1,X2,Y1,Y2,R,ID,RK
ZONE T="   76" 
SOLUTIONTIME=     0.01875000,STRANDID=   1
  0.40000000E+00  0.24820661E+00  0.00000000E+00 -0.18632636E+00  0.20000000E-01    1    0
  0.40000000E+00  0.44820661E+00  0.00000000E+00 -0.18632636E+00  0.20000000E-01    2    0
 VARIABLES= X1,X2,Y1,Y2,R,ID,RK
ZONE T="   78" 
SOLUTIONTIME=     0.01925000,STRANDID=   1
  0.40000000E+00  0.24811161E+00  0.00000000E+00 -0.19122968E+00  0.20000000E-01    1    0
  0.40000000E+00  0.44811161E+00  0.00000000E+00 -0.19122968E+00  0.20000000E-01    2    0
 VARIABLES= X1,X2,Y1,Y2,R,ID,RK
ZONE T="   80" 
SOLUTIONTIME=     0.01975000,STRANDID=   1
  0.40000000E+00  0.24801415E+00  0.00000000E+00 -0.19613301E+00  0.20000000E-01    1    0
  0.40000000E+00  0.44801415E+00  0.00000000E+00 -0.19613301E+00  0.20000000E-01    2    0
 VARIABLES= X1,X2,Y1,Y2,R,ID,RK
ZONE T="   82" 
SOLUTIONTIME=     0.02025000,STRANDID=   1
  0.40000000E+00  0.24791425E+00  0.00000000E+00 -0.20103633E+00  0.20000000E-01    1    0
  0.40000000E+00  0.44791425E+00  0.00000000E+00 -0.20103633E+00  0.20000000E-01    2    0
 VARIABLES= X1,X2,Y1,Y2,R,ID,RK
ZONE T="   84" 
SOLUTIONTIME=     0.02075000,STRANDID=   1
  0.40000000E+00  0.24781189E+00  0.00000000E+00 -0.20593966E+00  0.20000000E-01    1    0
  0.40000000E+00  0.44781189E+00  0.00000000E+00 -0.20593966E+00  0.20000000E-01    2    0
 VARIABLES= X1,X2,Y1,Y2,R,ID,RK
ZONE T="   86" 
SOLUTIONTIME=     0.02125000,STRANDID=   1
  0.40000000E+00  0.24770708E+00  0.00000000E+00 -0.21084299E+00  0.20000000E-01    1    0
  0.40000000E+00  0.44770708E+00  0.00000000E+00 -0.21084299E+00  0.20000000E-01    2    0
 VARIABLES= X1,X2,Y1,Y2,R,ID,RK
ZONE T="   88" 
SOLUTIONTIME=     0.02175000,STRANDID=   1
  0.40000000E+00  0.24759982E+00  0.00000000E+00 -0.21574631E+00  0.20000000E-01    1    0
  0.40000000E+00  0.44759982E+00  0.00000000E+00 -0.21574631E+00  0.20000000E-01    2    0
 VARIABLES= X1,X2,Y1,Y2,R,ID,RK
ZONE T="   90" 
SOLUTIONTIME=     0.02225000,STRANDID=   1
  0.40000000E+00  0.24749011E+00  0.00000000E+00 -0.22064964E+00  0.20000000E-01    1    0
  0.40000000E+00  0.44749011E+00  0.00000000E+00 -0.22064964E+00  0.20000000E-01    2    0
 VARIABLES= X1,X2,Y1,Y2,R,ID,RK
ZONE T="   92" 
SOLUTIONTIME=     0.02275000,STRANDID=   1
  0.40000000E+00  0.24737795E+00  0.00000000E+00 -0.22555296E+00  0.20000000E-01    1    0
  0.40000000E+00  0.44737795E+00  0.00000000E+00 -0.22555296E+00  0.20000000E-01    2    0
 VARIABLES= X1,X2,Y1,Y2,R,ID,RK
ZONE T="   94" 
SOLUTIONTIME=     0.02325000,STRANDID=   1
  0.40000000E+00  0.24726333E+00  0.00000000E+00 -0.23045629E+00  0.20000000E-01    1    0
  0.40000000E+00  0.44726333E+00  0.00000000E+00 -0.23045629E+00  0.20000000E-01    2    0
 VARIABLES= X1,X2,Y1,Y2,R,ID,RK
ZONE T="   96" 
SOLUTIONTIME=     0.02375000,STRANDID=   1
  0.40000000E+00  0.24714626E+00  0.00000000E+00 -0.23535961E+00  0.20000000E-01    1    0
  0.40000000E+00  0.44714626E+00  0.00000000E+00 -0.23535961E+00  0.20000000E-01    2    0
 VARIABLES= X1,X2,Y1,Y2,R,ID,RK
ZONE T="   98" 
SOLUTIONTIME=     0.02425000,STRANDID=   1
  0.40000000E+00  0.24702675E+00  0.00000000E+00 -0.24026294E+00  0.20000000E-01    1    0
  0.40000000E+00  0.44702675E+00  0.00000000E+00 -0.24026294E+00  0.20000000E-01    2    0
 VARIABLES= X1,X2,Y1,Y2,R,ID,RK
ZONE T="  100" 
SOLUTIONTIME=     0.02475000,STRANDID=   1
  0.40000000E+00  0.24690478E+00  0.00000000E+00 -0.24516626E+00  0.20000000E-01    1    0
  0.40000000E+00  0.44690478E+00  0.00000000E+00 -0.24516626E+00  0.20000000E-01    2    0
 VARIABLES= X1,X2,Y1,Y2,R,ID,RK
ZONE T="  102" 
SOLUTIONTIME=     0.02525000,STRANDID=   1
  0.40000000E+00  0.24678035E+00  0.00000000E+00 -0.25006959E+00  0.20000000E-01    1    0
  0.40000000E+00  0.44678035E+00  0.00000000E+00 -0.25006959E+00  0.20000000E-01    2    0
 VARIABLES= X1,X2,Y1,Y2,R,ID,RK
ZONE T="  104" 
SOLUTIONTIME=     0.02575000,STRANDID=   1
  0.40000000E+00  0.24665348E+00  0.00000000E+00 -0.25497291E+00  0.20000000E-01    1    0
  0.40000000E+00  0.44665348E+00  0.00000000E+00 -0.25497291E+00  0.20000000E-01    2    0
 VARIABLES= X1,X2,Y1,Y2,R,ID,RK
ZONE T="  106" 
SOLUTIONTIME=     0.02625000,STRANDID=   1
  0.40000000E+00  0.24652416E+00  0.00000000E+00 -0.25987624E+00  0.20000000E-01    1    0
  0.40000000E+00  0.44652416E+00  0.00000000E+00 -0.25987624E+00  0.20000000E-01    2    0
 VARIABLES= X1,X2,Y1,Y2,R,ID,RK
ZONE T="  108" 
SOLUTIONTIME=     0.02675000,STRANDID=   1
  0.40000000E+00  0.24639238E+00  0.00000000E+00 -0.26477956E+00  0.20000000E-01    1    0
  0.40000000E+00  0.44639238E+00  0.00000000E+00 -0.26477956E+00  0.20000000E-01    2    0
 VARIABLES= X1,X2,Y1,Y2,R,ID,RK
ZONE T="  110" 
SOLUTIONTIME=     0.02725000,STRANDID=   1
  0.40000000E+00  0.24625815E+00  0.00000000E+00 -0.26968289E+00  0.20000000E-01    1    0
  0.40000000E+00  0.44625815E+00  0.00000000E+00 -0.26968289E+00  0.20000000E-01    2    0
 VARIABLES= X1,X2,Y1,Y2,R,ID,RK
ZONE T="  112" 
SOLUTIONTIME=     0.02775000,STRANDID=   1
  0.40000000E+00  0.24612147E+00  0.00000000E+00 -0.27458621E+00  0.20000000E-01    1    0
  0.40000000E+00  0.44612147E+00  0.00000000E+00 -0.27458621E+00  0.20000000E-01    2    0
 VARIABLES= X1,X2,Y1,Y2,R,ID,RK
ZONE T="  114" 
SOLUTIONTIME=     0.02825000,STRANDID=   1
  0.40000000E+00  0.24598234E+00  0.00000000E+00 -0.27948954E+00  0.20000000E-01    1    0
  0.40000000E+00  0.44598234E+00  0.00000000E+00 -0.27948954E+00  0.20000000E-01    2    0
 VARIABLES= X1,X2,Y1,Y2,R,ID,RK
ZONE T="  116" 
SOLUTIONTIME=     0.02875000,STRANDID=   1
  0.40000000E+00  0.24584075E+00  0.00000000E+00 -0.28439286E+00  0.20000000E-01    1    0
  0.40000000E+00  0.44584075E+00  0.00000000E+00 -0.28439286E+00  0.20000000E-01    2    0
 VARIABLES= X1,X2,Y1,Y2,R,ID,RK
ZONE T="  118" 
SOLUTIONTIME=     0.02925000,STRANDID=   1
  0.40000000E+00  0.24569672E+00  0.00000000E+00 -0.28929619E+00  0.20000000E-01    1    0
  0.40000000E+00  0.44569672E+00  0.00000000E+00 -0.28929619E+00  0.20000000E-01    2    0
 VARIABLES= X1,X2,Y1,Y2,R,ID,RK
ZONE T="  120" 
SOLUTIONTIME=     0.02975000,STRANDID=   1
  0.40000000E+00  0.24555023E+00  0.00000000E+00 -0.29419951E+00  0.20000000E-01    1    0
  0.40000000E+00  0.44555023E+00  0.00000000E+00 -0.29419951E+00  0.20000000E-01    2    0
 VARIABLES= X1,X2,Y1,Y2,R,ID,RK
ZONE T="  122" 
SOLUTIONTIME=     0.03025000,STRANDID=   1
  0.40000000E+00  0.24540129E+00  0.00000000E+00 -0.29910284E+00  0.20000000E-01    1    0
  0.40000000E+00  0.44540129E+00  0.00000000E+00 -0.29910284E+00  0.20000000E-01    2    0
 VARIABLES= X1,X2,Y1,Y2,R,ID,RK
ZONE T="  124" 
SOLUTIONTIME=     0.03075000,STRANDID=   1
  0.40000000E+00  0.24524990E+00  0.00000000E+00 -0.30400616E+00  0.20000000E-01    1    0
  0.40000000E+00  0.44524990E+00  0.00000000E+00 -0.30400616E+00  0.20000000E-01    2    0
 VARIABLES= X1,X2,Y1,Y2,R,ID,RK
ZONE T="  126" 
SOLUTIONTIME=     0.03125000,STRANDID=   1
  0.40000000E+00  0.24509606E+00  0.00000000E+00 -0.30890949E+00  0.20000000E-01    1    0
  0.40000000E+00  0.44509606E+00  0.00000000E+00 -0.30890949E+00  0.20000000E-01    2    0
 VARIABLES= X1,X2,Y1,Y2,R,ID,RK
ZONE T="  128" 
SOLUTIONTIME=     0.03175000,STRANDID=   1
  0.40000000E+00  0.24493977E+00  0.00000000E+00 -0.31381281E+00  0.20000000E-01    1    0
  0.40000000E+00  0.44493977E+00  0.00000000E+00 -0.31381281E+00  0.20000000E-01    2    0
 VARIABLES= X1,X2,Y1,Y2,R,ID,RK
ZONE T="  130" 
SOLUTIONTIME=     0.03225000,STRANDID=   1
  0.40000000E+00  0.24478102E+00  0.00000000E+00 -0.31871614E+00  0.20000000E-01    1    0
  0.40000000E+00  0.44478102E+00  0.00000000E+00 -0.31871614E+00  0.20000000E-01    2    0
 VARIABLES= X1,X2,Y1,Y2,R,ID,RK
ZONE T="  132" 
SOLUTIONTIME=     0.03275000,STRANDID=   1
  0.40000000E+00  0.24461983E+00  0.00000000E+00 -0.32361947E+00  0.20000000E-01    1    0
  0.40000000E+00  0.44461983E+00  0.00000000E+00 -0.32361947E+00  0.20000000E-01    2    0
 VARIABLES= X1,X2,Y1,Y2,R,ID,RK
ZONE T="  134" 
SOLUTIONTIME=     0.03325000,STRANDID=   1
  0.40000000E+00  0.24445618E+00  0.00000000E+00 -0.32852279E+00  0.20000000E-01    1    0
  0.40000000E+00  0.44445618E+00  0.00000000E+00 -0.32852279E+00  0.20000000E-01    2    0
 VARIABLES= X1,X2,Y1,Y2,R,ID,RK
ZONE T="  136" 
SOLUTIONTIME=     0.03375000,STRANDID=   1
  0.40000000E+00  0.24429008E+00  0.00000000E+00 -0.33342612E+00  0.20000000E-01    1    0
  0.40000000E+00  0.44429008E+00  0.00000000E+00 -0.33342612E+00  0.20000000E-01    2    0
 VARIABLES= X1,X2,Y1,Y2,R,ID,RK
ZONE T="  138" 
SOLUTIONTIME=     0.03425000,STRANDID=   1
  0.40000000E+00  0.24412153E+00  0.00000000E+00 -0.33832944E+00  0.20000000E-01    1    0
  0.40000000E+00  0.44412153E+00  0.00000000E+00 -0.33832944E+00  0.20000000E-01    2    0
 VARIABLES= X1,X2,Y1,Y2,R,ID,RK
ZONE T="  140" 
SOLUTIONTIME=     0.03475000,STRANDID=   1
  0.40000000E+00  0.24395052E+00  0.00000000E+00 -0.34323277E+00  0.20000000E-01    1    0
  0.40000000E+00  0.44395052E+00  0.00000000E+00 -0.34323277E+00  0.20000000E-01    2    0
 VARIABLES= X1,X2,Y1,Y2,R,ID,RK
ZONE T="  142" 
SOLUTIONTIME=     0.03525000,STRANDID=   1
  0.40000000E+00  0.24377707E+00  0.00000000E+00 -0.34813609E+00  0.20000000E-01    1    0
  0.40000000E+00  0.44377707E+00  0.00000000E+00 -0.34813609E+00  0.20000000E-01    2    0
 VARIABLES= X1,X2,Y1,Y2,R,ID,RK
ZONE T="  144" 
SOLUTIONTIME=     0.03575000,STRANDID=   1
  0.40000000E+00  0.24360116E+00  0.00000000E+00 -0.35303942E+00  0.20000000E-01    1    0
  0.40000000E+00  0.44360116E+00  0.00000000E+00 -0.35303942E+00  0.20000000E-01    2    0
 VARIABLES= X1,X2,Y1,Y2,R,ID,RK
ZONE T="  146" 
SOLUTIONTIME=     0.03625000,STRANDID=   1
  0.40000000E+00  0.24342280E+00  0.00000000E+00 -0.35794274E+00  0.20000000E-01    1    0
  0.40000000E+00  0.44342280E+00  0.00000000E+00 -0.35794274E+00  0.20000000E-01    2    0
 VARIABLES= X1,X2,Y1,Y2,R,ID,RK
ZONE T="  148" 
SOLUTIONTIME=     0.03675000,STRANDID=   1
  0.40000000E+00  0.24324199E+00  0.00000000E+00 -0.36284607E+00  0.20000000E-01    1    0
  0.40000000E+00  0.44324199E+00  0.00000000E+00 -0.36284607E+00  0.20000000E-01    2    0
 VARIABLES= X1,X2,Y1,Y2,R,ID,RK
ZONE T="  150" 
SOLUTIONTIME=     0.03725000,STRANDID=   1
  0.40000000E+00  0.24305873E+00  0.00000000E+00 -0.36774939E+00  0.20000000E-01    1    0
  0.40000000E+00  0.44305873E+00  0.00000000E+00 -0.36774939E+00  0.20000000E-01    2    0
 VARIABLES= X1,X2,Y1,Y2,R,ID,RK
ZONE T="  152" 
SOLUTIONTIME=     0.03775000,STRANDID=   1
  0.40000000E+00  0.24287302E+00  0.00000000E+00 -0.37265272E+00  0.20000000E-01    1    0
  0.40000000E+00  0.44287302E+00  0.00000000E+00 -0.37265272E+00  0.20000000E-01    2    0
 VARIABLES= X1,X2,Y1,Y2,R,ID,RK
ZONE T="  154" 
SOLUTIONTIME=     0.03825000,STRANDID=   1
  0.40000000E+00  0.24268485E+00  0.00000000E+00 -0.37755604E+00  0.20000000E-01    1    0
  0.40000000E+00  0.44268485E+00  0.00000000E+00 -0.37755604E+00  0.20000000E-01    2    0
 VARIABLES= X1,X2,Y1,Y2,R,ID,RK
ZONE T="  156" 
SOLUTIONTIME=     0.03875000,STRANDID=   1
  0.40000000E+00  0.24249423E+00  0.00000000E+00 -0.38245937E+00  0.20000000E-01    1    0
  0.40000000E+00  0.44249423E+00  0.00000000E+00 -0.38245937E+00  0.20000000E-01    2    0
 VARIABLES= X1,X2,Y1,Y2,R,ID,RK
ZONE T="  158" 
SOLUTIONTIME=     0.03925000,STRANDID=   1
  0.40000000E+00  0.24230117E+00  0.00000000E+00 -0.38736269E+00  0.20000000E-01    1    0
  0.40000000E+00  0.44230117E+00  0.00000000E+00 -0.38736269E+00  0.20000000E-01    2    0
 VARIABLES= X1,X2,Y1,Y2,R,ID,RK
ZONE T="  160" 
SOLUTIONTIME=     0.03975000,STRANDID=   1
  0.40000000E+00  0.24210565E+00  0.00000000E+00 -0.39226602E+00  0.20000000E-01    1    0
  0.40000000E+00  0.44210565E+00  0.00000000E+00 -0.39226602E+00  0.20000000E-01    2    0
 VARIABLES= X1,X2,Y1,Y2,R,ID,RK
ZONE T="  162" 
SOLUTIONTIME=     0.04025000,STRANDID=   1
  0.40000000E+00  0.24190767E+00  0.00000000E+00 -0.39716934E+00  0.20000000E-01    1    0
  0.40000000E+00  0.44190767E+00  0.00000000E+00 -0.39716934E+00  0.20000000E-01    2    0
 VARIABLES= X1,X2,Y1,Y2,R,ID,RK
ZONE T="  164" 
SOLUTIONTIME=     0.04075000,STRANDID=   1
  0.40000000E+00  0.24170725E+00  0.00000000E+00 -0.40207267E+00  0.20000000E-01    1    0
  0.40000000E+00  0.44170725E+00  0.00000000E+00 -0.40207267E+00  0.20000000E-01    2    0
 VARIABLES= X1,X2,Y1,Y2,R,ID,RK
ZONE T="  166" 
SOLUTIONTIME=     0.04125000,STRANDID=   1
  0.40000000E+00  0.24150438E+00  0.00000000E+00 -0.40697599E+00  0.20000000E-01    1    0
  0.40000000E+00  0.44150438E+00  0.00000000E+00 -0.40697599E+00  0.20000000E-01    2    0
 VARIABLES= X1,X2,Y1,Y2,R,ID,RK
ZONE T="  168" 
SOLUTIONTIME=     0.04175000,STRANDID=   1
  0.40000000E+00  0.24129905E+00  0.00000000E+00 -0.41187932E+00  0.20000000E-01    1    0
  0.40000000E+00  0.44129905E+00  0.00000000E+00 -0.41187932E+00  0.20000000E-01    2    0
 VARIABLES= X1,X2,Y1,Y2,R,ID,RK
ZONE T="  170" 
SOLUTIONTIME=     0.04225000,STRANDID=   1
  0.40000000E+00  0.24109127E+00  0.00000000E+00 -0.41678264E+00  0.20000000E-01    1    0
  0.40000000E+00  0.44109127E+00  0.00000000E+00 -0.41678264E+00  0.20000000E-01    2    0
 VARIABLES= X1,X2,Y1,Y2,R,ID,RK
ZONE T="  172" 
SOLUTIONTIME=     0.04275000,STRANDID=   1
  0.40000000E+00  0.24088104E+00  0.00000000E+00 -0.42168597E+00  0.20000000E-01    1    0
  0.40000000E+00  0.44088104E+00  0.00000000E+00 -0.42168597E+00  0.20000000E-01    2    0
 VARIABLES= X1,X2,Y1,Y2,R,ID,RK
ZONE T="  174" 
SOLUTIONTIME=     0.04325000,STRANDID=   1
  0.40000000E+00  0.24066836E+00  0.00000000E+00 -0.42658930E+00  0.20000000E-01    1    0
  0.40000000E+00  0.44066836E+00  0.00000000E+00 -0.42658930E+00  0.20000000E-01    2    0
 VARIABLES= X1,X2,Y1,Y2,R,ID,RK
ZONE T="  176" 
SOLUTIONTIME=     0.04375000,STRANDID=   1
  0.40000000E+00  0.24045323E+00  0.00000000E+00 -0.43149262E+00  0.20000000E-01    1    0
  0.40000000E+00  0.44045323E+00  0.00000000E+00 -0.43149262E+00  0.20000000E-01    2    0
 VARIABLES= X1,X2,Y1,Y2,R,ID,RK
ZONE T="  178" 
SOLUTIONTIME=     0.04425000,STRANDID=   1
  0.40000000E+00  0.24023564E+00  0.00000000E+00 -0.43639595E+00  0.20000000E-01    1    0
  0.40000000E+00  0.44023564E+00  0.00000000E+00 -0.43639595E+00  0.20000000E-01    2    0
 VARIABLES= X1,X2,Y1,Y2,R,ID,RK
ZONE T="  180" 
SOLUTIONTIME=     0.04475000,STRANDID=   1
  0.40000000E+00  0.24001560E+00  0.00000000E+00 -0.44129927E+00  0.20000000E-01    1    0
  0.40000000E+00  0.44001560E+00  0.00000000E+00 -0.44129927E+00  0.20000000E-01    2    0
 VARIABLES= X1,X2,Y1,Y2,R,ID,RK
ZONE T="  182" 
SOLUTIONTIME=     0.04525000,STRANDID=   1
  0.40000000E+00  0.23979312E+00  0.00000000E+00 -0.44620260E+00  0.20000000E-01    1    0
  0.40000000E+00  0.43979312E+00  0.00000000E+00 -0.44620260E+00  0.20000000E-01    2    0
  0.00000000E+00  0.00000000E+00  0.00000000E+00  0.00000000E+00  0.99999997E-04    3    0
 VARIABLES= X1,X2,Y1,Y2,R,ID,RK
ZONE T="  184" 
SOLUTIONTIME=     0.04575000,STRANDID=   1
  0.40000000E+00  0.23956818E+00  0.00000000E+00 -0.45110592E+00  0.20000000E-01    1    0
  0.40000000E+00  0.43956818E+00  0.00000000E+00 -0.45110592E+00  0.20000000E-01    2    0
  0.00000000E+00  0.00000000E+00  0.00000000E+00  0.00000000E+00  0.99999997E-04    3    0
 VARIABLES= X1,X2,Y1,Y2,R,ID,RK
ZONE T="  186" 
SOLUTIONTIME=     0.04625000,STRANDID=   1
  0.40000000E+00  0.23934078E+00  0.00000000E+00 -0.45600925E+00  0.20000000E-01    1    0
  0.40000000E+00  0.43934078E+00  0.00000000E+00 -0.45600925E+00  0.20000000E-01    2    0
  0.00000000E+00  0.00000000E+00  0.00000000E+00  0.00000000E+00  0.99999997E-04    3    0
 VARIABLES= X1,X2,Y1,Y2,R,ID,RK
ZONE T="  188" 
SOLUTIONTIME=     0.04675000,STRANDID=   1
  0.40000000E+00  0.23911094E+00  0.00000000E+00 -0.46091257E+00  0.20000000E-01    1    0
  0.40000000E+00  0.43911094E+00  0.00000000E+00 -0.46091257E+00  0.20000000E-01    2    0
  0.00000000E+00  0.00000000E+00  0.00000000E+00  0.00000000E+00  0.99999997E-04    3    0
 VARIABLES= X1,X2,Y1,Y2,R,ID,RK
ZONE T="  190" 
SOLUTIONTIME=     0.04725000,STRANDID=   1
  0.40000000E+00  0.23887864E+00  0.00000000E+00 -0.46581590E+00  0.20000000E-01    1    0
  0.40000000E+00  0.43887864E+00  0.00000000E+00 -0.46581590E+00  0.20000000E-01    2    0
  0.00000000E+00  0.00000000E+00  0.00000000E+00  0.00000000E+00  0.99999997E-04    3    0
 VARIABLES= X1,X2,Y1,Y2,R,ID,RK
ZONE T="  192" 
SOLUTIONTIME=     0.04775000,STRANDID=   1
  0.40000000E+00  0.23864390E+00  0.00000000E+00 -0.47071922E+00  0.20000000E-01    1    0
  0.40000000E+00  0.43864390E+00  0.00000000E+00 -0.47071922E+00  0.20000000E-01    2    0
  0.00000000E+00  0.00000000E+00  0.00000000E+00  0.00000000E+00  0.99999997E-04    3    0
 VARIABLES= X1,X2,Y1,Y2,R,ID,RK
ZONE T="  194" 
SOLUTIONTIME=     0.04825000,STRANDID=   1
  0.40000000E+00  0.23840670E+00  0.00000000E+00 -0.47562255E+00  0.20000000E-01    1    0
  0.40000000E+00  0.43840670E+00  0.00000000E+00 -0.47562255E+00  0.20000000E-01    2    0
  0.00000000E+00  0.00000000E+00  0.00000000E+00  0.00000000E+00  0.99999997E-04    3    0
 VARIABLES= X1,X2,Y1,Y2,R,ID,RK
ZONE T="  196" 
SOLUTIONTIME=     0.04875000,STRANDID=   1
  0.40000000E+00  0.23816705E+00  0.00000000E+00 -0.48052587E+00  0.20000000E-01    1    0
  0.40000000E+00  0.43816705E+00  0.00000000E+00 -0.48052587E+00  0.20000000E-01    2    0
  0.00000000E+00  0.00000000E+00  0.00000000E+00  0.00000000E+00  0.99999997E-04    3    0
 VARIABLES= X1,X2,Y1,Y2,R,ID,RK
ZONE T="  198" 
SOLUTIONTIME=     0.04925000,STRANDID=   1
  0.40000000E+00  0.23792495E+00  0.00000000E+00 -0.48542920E+00  0.20000000E-01    1    0
  0.40000000E+00  0.43792495E+00  0.00000000E+00 -0.48542920E+00  0.20000000E-01    2    0
  0.00000000E+00  0.00000000E+00  0.00000000E+00  0.00000000E+00  0.99999997E-04    3    0
 VARIABLES= X1,X2,Y1,Y2,R,ID,RK
ZONE T="  200" 
SOLUTIONTIME=     0.04975000,STRANDID=   1
  0.40000000E+00  0.23768039E+00  0.00000000E+00 -0.49033252E+00  0.20000000E-01    1    0
  0.40000000E+00  0.43768039E+00  0.00000000E+00 -0.49033252E+00  0.20000000E-01    2    0
  0.00000000E+00  0.00000000E+00  0.00000000E+00  0.00000000E+00  0.99999997E-04    3    0
 VARIABLES= X1,X2,Y1,Y2,R,ID,RK
ZONE T="  202" 
SOLUTIONTIME=     0.05025000,STRANDID=   1
  0.40000000E+00  0.23743339E+00  0.00000000E+00 -0.49523585E+00  0.20000000E-01    1    0
  0.40000000E+00  0.43743339E+00  0.00000000E+00 -0.49523585E+00  0.20000000E-01    2    0
  0.00000000E+00  0.00000000E+00  0.00000000E+00  0.00000000E+00  0.99999997E-04    3    0
 VARIABLES= X1,X2,Y1,Y2,R,ID,RK
ZONE T="  204" 
SOLUTIONTIME=     0.05075000,STRANDID=   1
  0.40000000E+00  0.23718393E+00  0.00000000E+00 -0.50013917E+00  0.20000000E-01    1    0
  0.40000000E+00  0.43718393E+00  0.00000000E+00 -0.50013917E+00  0.20000000E-01    2    0
  0.00000000E+00  0.00000000E+00  0.00000000E+00  0.00000000E+00  0.99999997E-04    3    0
 VARIABLES= X1,X2,Y1,Y2,R,ID,RK
ZONE T="  206" 
SOLUTIONTIME=     0.05125000,STRANDID=   1
  0.40000000E+00  0.23693202E+00  0.00000000E+00 -0.50504250E+00  0.20000000E-01    1    0
  0.40000000E+00  0.43693202E+00  0.00000000E+00 -0.50504250E+00  0.20000000E-01    2    0
  0.00000000E+00  0.00000000E+00  0.00000000E+00  0.00000000E+00  0.99999997E-04    3    0
 VARIABLES= X1,X2,Y1,Y2,R,ID,RK
ZONE T="  208" 
SOLUTIONTIME=     0.05175000,STRANDID=   1
  0.40000000E+00  0.23667766E+00  0.00000000E+00 -0.50994582E+00  0.20000000E-01    1    0
  0.40000000E+00  0.43667766E+00  0.00000000E+00 -0.50994582E+00  0.20000000E-01    2    0
  0.00000000E+00  0.00000000E+00  0.00000000E+00  0.00000000E+00  0.99999997E-04    3    0
 VARIABLES= X1,X2,Y1,Y2,R,ID,RK
ZONE T="  210" 
SOLUTIONTIME=     0.05225000,STRANDID=   1
  0.40000000E+00  0.23642085E+00  0.00000000E+00 -0.51484915E+00  0.20000000E-01    1    0
  0.40000000E+00  0.43642085E+00  0.00000000E+00 -0.51484915E+00  0.20000000E-01    2    0