 VARIABLES= X1,X2,Y1,Y2,R,ID,RK
ZONE T="    2" 
SOLUTIONTIME=     0.00050000,STRANDID=   1
  0.30000000E+00  0.22000000E+00  0.00000000E+00 -0.25632674E-14  0.20000000E-01    1    0
  0.30000000E+00  0.26000000E+00  0.00000000E+00  0.49033252E-02  0.20000000E-01    2    0
  0.30000000E+00  0.30000000E+00  0.00000000E+00  0.49033252E-02  0.20000000E-01    3    0
 VARIABLES= X1,X2,Y1,Y2,R,ID,RK
ZONE T="    4" 
SOLUTIONTIME=     0.00150000,STRANDID=   1
  0.30000000E+00  0.22000000E+00  0.00000000E+00 -0.34176898E-14  0.20000000E-01    1    0
  0.30000000E+00  0.26000000E+00  0.00000000E+00  0.36094737E-11  0.20000000E-01    2    0
  0.30000000E+00  0.30000000E+00  0.00000000E+00  0.36094728E-11  0.20000000E-01    3    0
 VARIABLES= X1,X2,Y1,Y2,R,ID,RK
ZONE T="    6" 
SOLUTIONTIME=     0.00250000,STRANDID=   1
  0.30000000E+00  0.22000000E+00  0.00000000E+00 -0.59809572E-14  0.20000000E-01    1    0
  0.30000000E+00  0.26000000E+00  0.00000000E+00  0.49033252E-02  0.20000000E-01    2    0
  0.30000000E+00  0.30000000E+00  0.00000000E+00  0.49033252E-02  0.20000000E-01    3    0
 VARIABLES= X1,X2,Y1,Y2,R,ID,RK
ZONE T="    8" 
SOLUTIONTIME=     0.00350000,STRANDID=   1
  0.30000000E+00  0.22000000E+00  0.00000000E+00 -0.68353797E-14  0.20000000E-01    1    0
  0.30000000E+00  0.26000000E+00  0.00000000E+00  0.54125019E-11  0.20000000E-01    2    0
  0.30000000E+00  0.30000000E+00  0.00000000E+00  0.54125010E-11  0.20000000E-01    3    0
 VARIABLES= X1,X2,Y1,Y2,R,ID,RK
ZONE T="   10" 
SOLUTIONTIME=     0.00450000,STRANDID=   1
  0.30000000E+00  0.22000000E+00  0.00000000E+00 -0.93986470E-14  0.20000000E-01    1    0
  0.30000000E+00  0.26000000E+00  0.00000000E+00  0.49033252E-02  0.20000000E-01    2    0
  0.30000000E+00  0.30000000E+00  0.00000000E+00  0.49033252E-02  0.20000000E-01    3    0
 VARIABLES= X1,X2,Y1,Y2,R,ID,RK
ZONE T="   12" 
SOLUTIONTIME=     0.00550000,STRANDID=   1
  0.30000000E+00  0.22000000E+00  0.00000000E+00 -0.10253069E-13  0.20000000E-01    1    0
  0.30000000E+00  0.26000000E+00  0.00000000E+00  0.63123081E-11  0.20000000E-01    2    0
  0.30000000E+00  0.30000000E+00  0.00000000E+00  0.63123055E-11  0.20000000E-01    3    0
 VARIABLES= X1,X2,Y1,Y2,R,ID,RK
ZONE T="   14" 
SOLUTIONTIME=     0.00650000,STRANDID=   1
  0.30000000E+00  0.22000000E+00  0.00000000E+00 -0.12816337E-13  0.20000000E-01    1    0
  0.30000000E+00  0.26000000E+00  0.00000000E+00  0.49033252E-02  0.20000000E-01    2    0
  0.30000000E+00  0.30000000E+00  0.00000000E+00  0.49033252E-02  0.20000000E-01    3    0
 VARIABLES= X1,X2,Y1,Y2,R,ID,RK
ZONE T="   16" 
SOLUTIONTIME=     0.00750000,STRANDID=   1
  0.30000000E+00  0.22000000E+00  0.00000000E+00 -0.13670759E-13  0.20000000E-01    1    0
  0.30000000E+00  0.26000000E+00  0.00000000E+00  0.67605017E-11  0.20000000E-01    2    0
  0.30000000E+00  0.30000000E+00  0.00000000E+00  0.67604991E-11  0.20000000E-01    3    0
 VARIABLES= X1,X2,Y1,Y2,R,ID,RK
ZONE T="   18" 
SOLUTIONTIME=     0.00850000,STRANDID=   1
  0.30000000E+00  0.22000000E+00  0.00000000E+00 -0.16234027E-13  0.20000000E-01    1    0
  0.30000000E+00  0.26000000E+00  0.00000000E+00  0.49033252E-02  0.20000000E-01    2    0
  0.30000000E+00  0.30000000E+00  0.00000000E+00  0.49033252E-02  0.20000000E-01    3    0
 VARIABLES= X1,X2,Y1,Y2,R,ID,RK
ZONE T="   20" 
SOLUTIONTIME=     0.00950000,STRANDID=   1
  0.30000000E+00  0.22000000E+00  0.00000000E+00 -0.17088449E-13  0.20000000E-01    1    0
  0.30000000E+00  0.26000000E+00  0.00000000E+00  0.69828897E-11  0.20000000E-01    2    0
  0.30000000E+00  0.30000000E+00  0.00000000E+00  0.69828871E-11  0.20000000E-01    3    0
 VARIABLES= X1,X2,Y1,Y2,R,ID,RK
ZONE T="   22" 
SOLUTIONTIME=     0.01050000,STRANDID=   1
  0.30000000E+00  0.22000000E+00  0.00000000E+00 -0.19651716E-13  0.20000000E-01    1    0
  0.30000000E+00  0.26000000E+00  0.00000000E+00  0.49033252E-02  0.20000000E-01    2    0
  0.30000000E+00  0.30000000E+00  0.00000000E+00  0.49033252E-02  0.20000000E-01    3    0
 VARIABLES= X1,X2,Y1,Y2,R,ID,RK
ZONE T="   24" 
SOLUTIONTIME=     0.01150000,STRANDID=   1
  0.30000000E+00  0.22000000E+00  0.00000000E+00 -0.20506139E-13  0.20000000E-01    1    0
  0.30000000E+00  0.26000000E+00  0.00000000E+00  0.70923742E-11  0.20000000E-01    2    0
  0.30000000E+00  0.30000000E+00  0.00000000E+00  0.70923707E-11  0.20000000E-01    3    0
 VARIABLES= X1,X2,Y1,Y2,R,ID,RK
ZONE T="   26" 
SOLUTIONTIME=     0.01250000,STRANDID=   1
  0.30000000E+00  0.22000000E+00  0.00000000E+00 -0.23069406E-13  0.20000000E-01    1    0
  0.30000000E+00  0.26000000E+00  0.00000000E+00  0.49033252E-02  0.20000000E-01    2    0
  0.30000000E+00  0.30000000E+00  0.00000000E+00  0.49033252E-02  0.20000000E-01    3    0
 VARIABLES= X1,X2,Y1,Y2,R,ID,RK
ZONE T="   28" 
SOLUTIONTIME=     0.01350000,STRANDID=   1
  0.30000000E+00  0.22000000E+00  0.00000000E+00 -0.23923829E-13  0.20000000E-01    1    0
  0.30000000E+00  0.26000000E+00  0.00000000E+00  0.71454082E-11  0.20000000E-01    2    0
  0.30000000E+00  0.30000000E+00  0.00000000E+00  0.71454030E-11  0.20000000E-01    3    0
 VARIABLES= X1,X2,Y1,Y2,R,ID,RK
ZONE T="   30" 
SOLUTIONTIME=     0.01450000,STRANDID=   1
  0.30000000E+00  0.22000000E+00  0.00000000E+00 -0.26487096E-13  0.20000000E-01    1    0
  0.30000000E+00  0.26000000E+00  0.00000000E+00  0.49033252E-02  0.20000000E-01    2    0
  0.30000000E+00  0.30000000E+00  0.00000000E+00  0.49033252E-02  0.20000000E-01    3    0
 VARIABLES= X1,X2,Y1,Y2,R,ID,RK
ZONE T="   32" 
SOLUTIONTIME=     0.01550000,STRANDID=   1
  0.30000000E+00  0.22000000E+00  0.00000000E+00 -0.27341519E-13  0.20000000E-01    1    0
  0.30000000E+00  0.26000000E+00  0.00000000E+00  0.71702173E-11  0.20000000E-01    2    0
  0.30000000E+00  0.30000000E+00  0.00000000E+00  0.71702112E-11  0.20000000E-01    3    0
 VARIABLES= X1,X2,Y1,Y2,R,ID,RK
ZONE T="   34" 
SOLUTIONTIME=     0.01650000,STRANDID=   1
  0.30000000E+00  0.22000000E+00  0.00000000E+00 -0.29904786E-13  0.20000000E-01    1    0
  0.30000000E+00  0.26000000E+00  0.00000000E+00  0.49033252E-02  0.20000000E-01    2    0
  0.30000000E+00  0.30000000E+00  0.00000000E+00  0.49033252E-02  0.20000000E-01    3    0
 VARIABLES= X1,X2,Y1,Y2,R,ID,RK
ZONE T="   36" 
SOLUTIONTIME=     0.01750000,STRANDID=   1
  0.30000000E+00  0.22000000E+00  0.00000000E+00 -0.30759208E-13  0.20000000E-01    1    0
  0.30000000E+00  0.26000000E+00  0.00000000E+00  0.71809119E-11  0.20000000E-01    2    0
  0.30000000E+00  0.30000000E+00  0.00000000E+00  0.71809058E-11  0.20000000E-01    3    0
 VARIABLES= X1,X2,Y1,Y2,R,ID,RK
ZONE T="   38" 
SOLUTIONTIME=     0.01850000,STRANDID=   1
  0.30000000E+00  0.22000000E+00  0.00000000E+00 -0.33322476E-13  0.20000000E-01    1    0
  0.30000000E+00  0.26000000E+00  0.00000000E+00  0.49033252E-02  0.20000000E-01    2    0
  0.30000000E+00  0.30000000E+00  0.00000000E+00  0.49033252E-02  0.20000000E-01    3    0
 VARIABLES= X1,X2,Y1,Y2,R,ID,RK
ZONE T="   40" 
SOLUTIONTIME=     0.01950000,STRANDID=   1
  0.30000000E+00  0.22000000E+00  0.00000000E+00 -0.34176898E-13  0.20000000E-01    1    0
  0.30000000E+00  0.26000000E+00  0.00000000E+00  0.71845513E-11  0.20000000E-01    2    0
  0.30000000E+00  0.30000000E+00  0.00000000E+00  0.71845435E-11  0.20000000E-01    3    0
 VARIABLES= X1,X2,Y1,Y2,R,ID,RK
ZONE T="   42" 
SOLUTIONTIME=     0.02050000,STRANDID=   1
  0.30000000E+00  0.22000000E+00  0.00000000E+00 -0.36740166E-13  0.20000000E-01    1    0
  0.30000000E+00  0.26000000E+00  0.00000000E+00  0.49033252E-02  0.20000000E-01    2    0
  0.30000000E+00  0.30000000E+00  0.00000000E+00  0.49033252E-02  0.20000000E-01    3    0
 VARIABLES= X1,X2,Y1,Y2,R,ID,RK
ZONE T="   44" 
SOLUTIONTIME=     0.02150000,STRANDID=   1
  0.30000000E+00  0.22000000E+00  0.00000000E+00 -0.37594588E-13  0.20000000E-01    1    0
  0.30000000E+00  0.26000000E+00  0.00000000E+00  0.71846624E-11  0.20000000E-01    2    0
  0.30000000E+00  0.30000000E+00  0.00000000E+00  0.71846528E-11  0.20000000E-01    3    0
 VARIABLES= X1,X2,Y1,Y2,R,ID,RK
ZONE T="   46" 
SOLUTIONTIME=     0.02250000,STRANDID=   1
  0.30000000E+00  0.22000000E+00  0.00000000E+00 -0.40157855E-13  0.20000000E-01    1    0
  0.30000000E+00  0.26000000E+00  0.00000000E+00  0.49033252E-02  0.20000000E-01    2    0
  0.30000000E+00  0.30000000E+00  0.00000000E+00  0.49033252E-02  0.20000000E-01    3    0
 VARIABLES= X1,X2,Y1,Y2,R,ID,RK
ZONE T="   48" 
SOLUTIONTIME=     0.02350000,STRANDID=   1
  0.30000000E+00  0.22000000E+00  0.00000000E+00 -0.41012278E-13  0.20000000E-01    1    0
  0.30000000E+00  0.26000000E+00  0.00000000E+00  0.71830074E-11  0.20000000E-01    2    0
  0.30000000E+00  0.30000000E+00  0.00000000E+00  0.71829979E-11  0.20000000E-01    3    0
 VARIABLES= X1,X2,Y1,Y2,R,ID,RK
ZONE T="   50" 
SOLUTIONTIME=     0.02450000,STRANDID=   1
  0.30000000E+00  0.22000000E+00  0.00000000E+00 -0.43575545E-13  0.20000000E-01    1    0
  0.30000000E+00  0.26000000E+00  0.00000000E+00  0.49033252E-02  0.20000000E-01    2    0
  0.30000000E+00  0.30000000E+00  0.00000000E+00  0.49033252E-02  0.20000000E-01    3    0
 VARIABLES= X1,X2,Y1,Y2,R,ID,RK
ZONE T="   52" 
SOLUTIONTIME=     0.02550000,STRANDID=   1
  0.30000000E+00  0.22000000E+00  0.00000000E+00 -0.44429968E-13  0.20000000E-01    1    0
  0.30000000E+00  0.26000000E+00  0.00000000E+00  0.71804713E-11  0.20000000E-01    2    0
  0.30000000E+00  0.30000000E+00  0.00000000E+00  0.71804617E-11  0.20000000E-01    3    0
 VARIABLES= X1,X2,Y1,Y2,R,ID,RK
ZONE T="   54" 
SOLUTIONTIME=     0.02650000,STRANDID=   1
  0.30000000E+00  0.22000000E+00  0.00000000E+00 -0.46993235E-13  0.20000000E-01    1    0
  0.30000000E+00  0.26000000E+00  0.00000000E+00  0.49033252E-02  0.20000000E-01    2    0
  0.30000000E+00  0.30000000E+00  0.00000000E+00  0.49033252E-02  0.20000000E-01    3    0
 VARIABLES= X1,X2,Y1,Y2,R,ID,RK
ZONE T="   56" 
SOLUTIONTIME=     0.02750000,STRANDID=   1
  0.30000000E+00  0.22000000E+00  0.00000000E+00 -0.47847658E-13  0.20000000E-01    1    0
  0.30000000E+00  0.26000000E+00  0.00000000E+00  0.71774945E-11  0.20000000E-01    2    0
  0.30000000E+00  0.30000000E+00  0.00000000E+00  0.71774849E-11  0.20000000E-01    3    0
 VARIABLES= X1,X2,Y1,Y2,R,ID,RK
ZONE T="   58" 
SOLUTIONTIME=     0.02850000,STRANDID=   1
  0.30000000E+00  0.22000000E+00  0.00000000E+00 -0.50410925E-13  0.20000000E-01    1    0
  0.30000000E+00  0.26000000E+00  0.00000000E+00  0.49033252E-02  0.20000000E-01    2    0
  0.30000000E+00  0.30000000E+00  0.00000000E+00  0.49033252E-02  0.20000000E-01    3    0
 VARIABLES= X1,X2,Y1,Y2,R,ID,RK
ZONE T="   60" 
SOLUTIONTIME=     0.02950000,STRANDID=   1
  0.30000000E+00  0.22000000E+00  0.00000000E+00 -0.51265347E-13  0.20000000E-01    1    0
  0.30000000E+00  0.26000000E+00  0.00000000E+00  0.71742974E-11  0.20000000E-01    2    0
  0.30000000E+00  0.30000000E+00  0.00000000E+00  0.71742878E-11  0.20000000E-01    3    0
 VARIABLES= X1,X2,Y1,Y2,R,ID,RK
ZONE T="   62" 
SOLUTIONTIME=     0.03050000,STRANDID=   1
  0.30000000E+00  0.22000000E+00  0.00000000E+00 -0.53828615E-13  0.20000000E-01    1    0
  0.30000000E+00  0.26000000E+00  0.00000000E+00  0.49033252E-02  0.20000000E-01    2    0
  0.30000000E+00  0.30000000E+00  0.00000000E+00  0.49033252E-02  0.20000000E-01    3    0
 VARIABLES= X1,X2,Y1,Y2,R,ID,RK
ZONE T="   64" 
SOLUTIONTIME=     0.03150000,STRANDID=   1
  0.30000000E+00  0.22000000E+00  0.00000000E+00 -0.54683037E-13  0.20000000E-01    1    0
  0.30000000E+00  0.26000000E+00  0.00000000E+00  0.71709910E-11  0.20000000E-01    2    0
  0.30000000E+00  0.30000000E+00  0.00000000E+00  0.71709797E-11  0.20000000E-01    3    0
 VARIABLES= X1,X2,Y1,Y2,R,ID,RK
ZONE T="   66" 
SOLUTIONTIME=     0.03250000,STRANDID=   1
  0.30000000E+00  0.22000000E+00  0.00000000E+00 -0.57246305E-13  0.20000000E-01    1    0
  0.30000000E+00  0.26000000E+00  0.00000000E+00  0.49033252E-02  0.20000000E-01    2    0
  0.30000000E+00  0.30000000E+00  0.00000000E+00  0.49033252E-02  0.20000000E-01    3    0
 VARIABLES= X1,X2,Y1,Y2,R,ID,RK
ZONE T="   68" 
SOLUTIONTIME=     0.03350000,STRANDID=   1
  0.30000000E+00  0.21999755E+00  0.00000000E+00 -0.49033253E-02  0.20000000E-01    1    0
  0.30000000E+00  0.25999755E+00  0.00000000E+00 -0.49033253E-02  0.20000000E-01    2    0
  0.30000000E+00  0.29999755E+00  0.00000000E+00 -0.49033253E-02  0.20000000E-01    3    0
 VARIABLES= X1,X2,Y1,Y2,R,ID,RK
ZONE T="   70" 
SOLUTIONTIME=     0.03450000,STRANDID=   1
  0.30000000E+00  0.21999019E+00  0.00000000E+00 -0.19613301E-01  0.20000000E-01    1    0
  0.30000000E+00  0.25999019E+00  0.00000000E+00 -0.49033252E-02  0.20000000E-01    2    0
  0.30000000E+00  0.29999019E+00  0.00000000E+00 -0.49033252E-02  0.20000000E-01    3    0
 VARIABLES= X1,X2,Y1,Y2,R,ID,RK
ZONE T="   72" 
SOLUTIONTIME=     0.03550000,STRANDID=   1
  0.30000000E+00  0.21998774E+00  0.00000000E+00 -0.24516626E-01  0.20000000E-01    1    0
  0.30000000E+00  0.25998774E+00  0.00000000E+00  0.49033253E-02  0.20000000E-01    2    0
  0.30000000E+00  0.29998774E+00  0.00000000E+00  0.49033253E-02  0.20000000E-01    3    0
 VARIABLES= X1,X2,Y1,Y2,R,ID,RK
ZONE T="   74" 
SOLUTIONTIME=     0.03650000,STRANDID=   1
  0.30000000E+00  0.21999346E+00  0.00000000E+00 -0.13075534E-01  0.20000000E-01    1    0
  0.30000000E+00  0.25999346E+00  0.00000000E+00  0.11441092E-01  0.20000000E-01    2    0
  0.30000000E+00  0.29999346E+00  0.00000000E+00  0.11441092E-01  0.20000000E-01    3    0
 VARIABLES= X1,X2,Y1,Y2,R,ID,RK
ZONE T="   76" 
SOLUTIONTIME=     0.03750000,STRANDID=   1
  0.30000000E+00  0.21999973E+00  0.00000000E+00 -0.54481387E-03  0.20000000E-01    1    0
  0.30000000E+00  0.25999973E+00  0.00000000E+00  0.59929530E-02  0.20000000E-01    2    0
  0.30000000E+00  0.29999973E+00  0.00000000E+00  0.59929530E-02  0.20000000E-01    3    0
 VARIABLES= X1,X2,Y1,Y2,R,ID,RK
ZONE T="   78" 
SOLUTIONTIME=     0.03850000,STRANDID=   1
  0.30000000E+00  0.21999782E+00  0.00000000E+00 -0.43585114E-02  0.20000000E-01    1    0
  0.30000000E+00  0.25999837E+00  0.00000000E+00 -0.38136975E-02  0.20000000E-01    2    0
  0.30000000E+00  0.29999837E+00  0.00000000E+00 -0.38136975E-02  0.20000000E-01    3    0
 VARIABLES= X1,X2,Y1,Y2,R,ID,RK
ZONE T="   80" 
SOLUTIONTIME=     0.03950000,STRANDID=   1
  0.30000000E+00  0.21999101E+00  0.00000000E+00 -0.17978859E-01  0.20000000E-01    1    0
  0.30000000E+00  0.25999156E+00  0.00000000E+00 -0.49033252E-02  0.20000000E-01    2    0
  0.30000000E+00  0.29999156E+00  0.00000000E+00 -0.49033252E-02  0.20000000E-01    3    0
 VARIABLES= X1,X2,Y1,Y2,R,ID,RK
ZONE T="   82" 
SOLUTIONTIME=     0.04050000,STRANDID=   1
  0.30000000E+00  0.21998801E+00  0.00000000E+00 -0.23971812E-01  0.20000000E-01    1    0
  0.30000000E+00  0.25998856E+00  0.00000000E+00  0.38136975E-02  0.20000000E-01    2    0
  0.30000000E+00  0.29998856E+00  0.00000000E+00  0.38136975E-02  0.20000000E-01    3    0
 VARIABLES= X1,X2,Y1,Y2,R,ID,RK
ZONE T="   84" 
SOLUTIONTIME=     0.04150000,STRANDID=   1
  0.30000000E+00  0.21999283E+00  0.00000000E+00 -0.14346766E-01  0.20000000E-01    1    0
  0.30000000E+00  0.25999337E+00  0.00000000E+00  0.10714674E-01  0.20000000E-01    2    0
  0.30000000E+00  0.29999337E+00  0.00000000E+00  0.10714674E-01  0.20000000E-01    3    0
 VARIABLES= X1,X2,Y1,Y2,R,ID,RK
ZONE T="   86" 
SOLUTIONTIME=     0.04250000,STRANDID=   1
  0.30000000E+00  0.21999903E+00  0.00000000E+00 -0.19371161E-02  0.20000000E-01    1    0
  0.30000000E+00  0.25999958E+00  0.00000000E+00  0.65983018E-02  0.20000000E-01    2    0
  0.30000000E+00  0.29999958E+00  0.00000000E+00  0.65983018E-02  0.20000000E-01    3    0
 VARIABLES= X1,X2,Y1,Y2,R,ID,RK
ZONE T="   88" 
SOLUTIONTIME=     0.04350000,STRANDID=   1
  0.30000000E+00  0.21999852E+00  0.00000000E+00 -0.29662092E-02  0.20000000E-01    1    0
  0.30000000E+00  0.25999882E+00  0.00000000E+00 -0.32083487E-02  0.20000000E-01    2    0
  0.30000000E+00  0.29999882E+00  0.00000000E+00 -0.32083487E-02  0.20000000E-01    3    0
 VARIABLES= X1,X2,Y1,Y2,R,ID,RK
ZONE T="   90" 
SOLUTIONTIME=     0.04450000,STRANDID=   1
  0.30000000E+00  0.21999165E+00  0.00000000E+00 -0.16707627E-01  0.20000000E-01    1    0
  0.30000000E+00  0.25999195E+00  0.00000000E+00 -0.56297438E-02  0.20000000E-01    2    0
  0.30000000E+00  0.29999195E+00  0.00000000E+00 -0.56297438E-02  0.20000000E-01    3    0
 VARIABLES= X1,X2,Y1,Y2,R,ID,RK
ZONE T="   92" 
SOLUTIONTIME=     0.04550000,STRANDID=   1
  0.30000000E+00  0.21998774E+00  0.00000000E+00 -0.24516626E-01  0.20000000E-01    1    0
  0.30000000E+00  0.25998804E+00  0.00000000E+00  0.27240696E-02  0.20000000E-01    2    0
  0.30000000E+00  0.29998804E+00  0.00000000E+00  0.27240696E-02  0.20000000E-01    3    0
 VARIABLES= X1,X2,Y1,Y2,R,ID,RK
ZONE T="   94" 
SOLUTIONTIME=     0.04650000,STRANDID=   1
  0.30000000E+00  0.21999201E+00  0.00000000E+00 -0.15981208E-01  0.20000000E-01    1    0
  0.30000000E+00  0.25999231E+00  0.00000000E+00  0.10714674E-01  0.20000000E-01    2    0
  0.30000000E+00  0.29999231E+00  0.00000000E+00  0.10714674E-01  0.20000000E-01    3    0
 VARIABLES= X1,X2,Y1,Y2,R,ID,RK
ZONE T="   96" 
SOLUTIONTIME=     0.04750000,STRANDID=   1
  0.30000000E+00  0.21999876E+00  0.00000000E+00 -0.24819300E-02  0.20000000E-01    1    0
  0.30000000E+00  0.25999906E+00  0.00000000E+00  0.76879296E-02  0.20000000E-01    2    0
  0.30000000E+00  0.29999906E+00  0.00000000E+00  0.76879296E-02  0.20000000E-01    3    0
 VARIABLES= X1,X2,Y1,Y2,R,ID,RK
ZONE T="   98" 
SOLUTIONTIME=     0.04850000,STRANDID=   1
  0.30000000E+00  0.21999879E+00  0.00000000E+00 -0.24213952E-02  0.20000000E-01    1    0
  0.30000000E+00  0.25999939E+00  0.00000000E+00 -0.21187208E-02  0.20000000E-01    2    0
  0.30000000E+00  0.29999939E+00  0.00000000E+00 -0.21187208E-02  0.20000000E-01    3    0
 VARIABLES= X1,X2,Y1,Y2,R,ID,RK
ZONE T="  100" 
SOLUTIONTIME=     0.04950000,STRANDID=   1
  0.30000000E+00  0.21999246E+00  0.00000000E+00 -0.15073185E-01  0.20000000E-01    1    0
  0.30000000E+00  0.25999307E+00  0.00000000E+00 -0.56297438E-02  0.20000000E-01    2    0
  0.30000000E+00  0.29999307E+00  0.00000000E+00 -0.56297438E-02  0.20000000E-01    3    0
 VARIABLES= X1,X2,Y1,Y2,R,ID,RK
ZONE T="  102" 
SOLUTIONTIME=     0.05050000,STRANDID=   1
  0.30000000E+00  0.21998801E+00  0.00000000E+00 -0.23971812E-01  0.20000000E-01    1    0
  0.30000000E+00  0.25998862E+00  0.00000000E+00  0.16344418E-02  0.20000000E-01    2    0
  0.30000000E+00  0.29998862E+00  0.00000000E+00  0.16344418E-02  0.20000000E-01    3    0
 VARIABLES= X1,X2,Y1,Y2,R,ID,RK
ZONE T="  104" 
SOLUTIONTIME=     0.05150000,STRANDID=   1
  0.30000000E+00  0.21999137E+00  0.00000000E+00 -0.17252441E-01  0.20000000E-01    1    0
  0.30000000E+00  0.25999198E+00  0.00000000E+00  0.99882551E-02  0.20000000E-01    2    0
  0.30000000E+00  0.29999198E+00  0.00000000E+00  0.99882551E-02  0.20000000E-01    3    0
 VARIABLES= X1,X2,Y1,Y2,R,ID,RK
ZONE T="  106" 
SOLUTIONTIME=     0.05250000,STRANDID=   1
  0.30000000E+00  0.21999806E+00  0.00000000E+00 -0.38742322E-02  0.20000000E-01    1    0
  0.30000000E+00  0.25999867E+00  0.00000000E+00  0.82932784E-02  0.20000000E-01    2    0
  0.30000000E+00  0.29999867E+00  0.00000000E+00  0.82932784E-02  0.20000000E-01    3    0
 VARIABLES= X1,X2,Y1,Y2,R,ID,RK
ZONE T="  108" 
SOLUTIONTIME=     0.05350000,STRANDID=   1
  0.30000000E+00  0.21999949E+00  0.00000000E+00 -0.10290930E-02  0.20000000E-01    1    0
  0.30000000E+00  0.25999961E+00  0.00000000E+00 -0.15133720E-02  0.20000000E-01    2    0
  0.30000000E+00  0.29999961E+00  0.00000000E+00 -0.15133720E-02  0.20000000E-01    3    0
 VARIABLES= X1,X2,Y1,Y2,R,ID,RK
ZONE T="  110" 
SOLUTIONTIME=     0.05450000,STRANDID=   1
  0.30000000E+00  0.21999806E+00  0.00000000E+00 -0.38742322E-02  0.20000000E-01    1    0
  0.30000000E+00  0.25999867E+00  0.00000000E+00 -0.33899533E-02  0.20000000E-01    2    0
  0.30000000E+00  0.29999867E+00  0.00000000E+00 -0.33899533E-02  0.20000000E-01    3    0
 VARIABLES= X1,X2,Y1,Y2,R,ID,RK
ZONE T="  112" 
SOLUTIONTIME=     0.05550000,STRANDID=   1
  0.30000000E+00  0.21999137E+00  0.00000000E+00 -0.17252441E-01  0.20000000E-01    1    0
  0.30000000E+00  0.25999198E+00  0.00000000E+00 -0.50849299E-02  0.20000000E-01    2    0
  0.30000000E+00  0.29999198E+00  0.00000000E+00 -0.50849299E-02  0.20000000E-01    3    0
 VARIABLES= X1,X2,Y1,Y2,R,ID,RK
ZONE T="  114" 
SOLUTIONTIME=     0.05650000,STRANDID=   1
  0.30000000E+00  0.21998801E+00  0.00000000E+00 -0.23971812E-01  0.20000000E-01    1    0
  0.30000000E+00  0.25998862E+00  0.00000000E+00  0.32688835E-02  0.20000000E-01    2    0
  0.30000000E+00  0.29998862E+00  0.00000000E+00  0.32688835E-02  0.20000000E-01    3    0
 VARIABLES= X1,X2,Y1,Y2,R,ID,RK
ZONE T="  116" 
SOLUTIONTIME=     0.05750000,STRANDID=   1
  0.30000000E+00  0.21999246E+00  0.00000000E+00 -0.15073185E-01  0.20000000E-01    1    0
  0.30000000E+00  0.25999307E+00  0.00000000E+00  0.10533069E-01  0.20000000E-01    2    0
  0.30000000E+00  0.29999307E+00  0.00000000E+00  0.10533069E-01  0.20000000E-01    3    0
 VARIABLES= X1,X2,Y1,Y2,R,ID,RK
ZONE T="  118" 
SOLUTIONTIME=     0.05850000,STRANDID=   1
  0.30000000E+00  0.21999879E+00  0.00000000E+00 -0.24213951E-02  0.20000000E-01    1    0
  0.30000000E+00  0.25999939E+00  0.00000000E+00  0.70220461E-02  0.20000000E-01    2    0
  0.30000000E+00  0.29999939E+00  0.00000000E+00  0.70220461E-02  0.20000000E-01    3    0
 VARIABLES= X1,X2,Y1,Y2,R,ID,RK
ZONE T="  120" 
SOLUTIONTIME=     0.05950000,STRANDID=   1
  0.30000000E+00  0.21999876E+00  0.00000000E+00 -0.24819301E-02  0.20000000E-01    1    0
  0.30000000E+00  0.25999906E+00  0.00000000E+00 -0.27846044E-02  0.20000000E-01    2    0
  0.30000000E+00  0.29999906E+00  0.00000000E+00 -0.27846044E-02  0.20000000E-01    3    0
 VARIABLES= X1,X2,Y1,Y2,R,ID,RK
ZONE T="  122" 
SOLUTIONTIME=     0.06050000,STRANDID=   1
  0.30000000E+00  0.21999201E+00  0.00000000E+00 -0.15981208E-01  0.20000000E-01    1    0
  0.30000000E+00  0.25999231E+00  0.00000000E+00 -0.58113484E-02  0.20000000E-01    2    0
  0.30000000E+00  0.29999231E+00  0.00000000E+00 -0.58113484E-02  0.20000000E-01    3    0
 VARIABLES= X1,X2,Y1,Y2,R,ID,RK
ZONE T="  124" 
SOLUTIONTIME=     0.06150000,STRANDID=   1
  0.30000000E+00  0.21998774E+00  0.00000000E+00 -0.24516626E-01  0.20000000E-01    1    0
  0.30000000E+00  0.25998804E+00  0.00000000E+00  0.21792556E-02  0.20000000E-01    2    0
  0.30000000E+00  0.29998804E+00  0.00000000E+00  0.21792556E-02  0.20000000E-01    3    0
 VARIABLES= X1,X2,Y1,Y2,R,ID,RK
ZONE T="  126" 
SOLUTIONTIME=     0.06250000,STRANDID=   1
  0.30000000E+00  0.21999165E+00  0.00000000E+00 -0.16707627E-01  0.20000000E-01    1    0
  0.30000000E+00  0.25999195E+00  0.00000000E+00  0.10533069E-01  0.20000000E-01    2    0
  0.30000000E+00  0.29999195E+00  0.00000000E+00  0.10533069E-01  0.20000000E-01    3    0
 VARIABLES= X1,X2,Y1,Y2,R,ID,RK
ZONE T="  128" 
SOLUTIONTIME=     0.06350000,STRANDID=   1
  0.30000000E+00  0.21999852E+00  0.00000000E+00 -0.29662092E-02  0.20000000E-01    1    0
  0.30000000E+00  0.25999882E+00  0.00000000E+00  0.81116738E-02  0.20000000E-01    2    0
  0.30000000E+00  0.29999882E+00  0.00000000E+00  0.81116738E-02  0.20000000E-01    3    0
 VARIABLES= X1,X2,Y1,Y2,R,ID,RK
ZONE T="  130" 
SOLUTIONTIME=     0.06450000,STRANDID=   1
  0.30000000E+00  0.21999903E+00  0.00000000E+00 -0.19371161E-02  0.20000000E-01    1    0
  0.30000000E+00  0.25999958E+00  0.00000000E+00 -0.16949767E-02  0.20000000E-01    2    0
  0.30000000E+00  0.29999958E+00  0.00000000E+00 -0.16949767E-02  0.20000000E-01    3    0
 VARIABLES= X1,X2,Y1,Y2,R,ID,RK
ZONE T="  132" 
SOLUTIONTIME=     0.06550000,STRANDID=   1
  0.30000000E+00  0.21999283E+00  0.00000000E+00 -0.14346766E-01  0.20000000E-01    1    0
  0.30000000E+00  0.25999337E+00  0.00000000E+00 -0.58113485E-02  0.20000000E-01    2    0
  0.30000000E+00  0.29999337E+00  0.00000000E+00 -0.58113485E-02  0.20000000E-01    3    0
 VARIABLES= X1,X2,Y1,Y2,R,ID,RK
ZONE T="  134" 
SOLUTIONTIME=     0.06650000,STRANDID=   1
  0.30000000E+00  0.21998801E+00  0.00000000E+00 -0.23971812E-01  0.20000000E-01    1    0
  0.30000000E+00  0.25998856E+00  0.00000000E+00  0.10896278E-02  0.20000000E-01    2    0
  0.30000000E+00  0.29998856E+00  0.00000000E+00  0.10896278E-02  0.20000000E-01    3    0
 VARIABLES= X1,X2,Y1,Y2,R,ID,RK
ZONE T="  136" 
SOLUTIONTIME=     0.06750000,STRANDID=   1
  0.30000000E+00  0.21999101E+00  0.00000000E+00 -0.17978859E-01  0.20000000E-01    1    0
  0.30000000E+00  0.25999156E+00  0.00000000E+00  0.98066505E-02  0.20000000E-01    2    0
  0.30000000E+00  0.29999156E+00  0.00000000E+00  0.98066505E-02  0.20000000E-01    3    0
 VARIABLES= X1,X2,Y1,Y2,R,ID,RK
ZONE T="  138" 
SOLUTIONTIME=     0.06850000,STRANDID=   1
  0.30000000E+00  0.21999782E+00  0.00000000E+00 -0.43585113E-02  0.20000000E-01    1    0
  0.30000000E+00  0.25999837E+00  0.00000000E+00  0.87170227E-02  0.20000000E-01    2    0
  0.30000000E+00  0.29999837E+00  0.00000000E+00  0.87170227E-02  0.20000000E-01    3    0
 VARIABLES= X1,X2,Y1,Y2,R,ID,RK
ZONE T="  140" 
SOLUTIONTIME=     0.06950000,STRANDID=   1
  0.30000000E+00  0.21999973E+00  0.00000000E+00 -0.54481397E-03  0.20000000E-01    1    0
  0.30000000E+00  0.25999973E+00  0.00000000E+00 -0.10896278E-02  0.20000000E-01    2    0
  0.30000000E+00  0.29999973E+00  0.00000000E+00 -0.10896278E-02  0.20000000E-01    3    0
 VARIABLES= X1,X2,Y1,Y2,R,ID,RK
ZONE T="  142" 
SOLUTIONTIME=     0.07050000,STRANDID=   1
  0.30000000E+00  0.21999782E+00  0.00000000E+00 -0.43585113E-02  0.20000000E-01    1    0
  0.30000000E+00  0.25999837E+00  0.00000000E+00 -0.38136975E-02  0.20000000E-01    2    0
  0.30000000E+00  0.29999837E+00  0.00000000E+00 -0.38136975E-02  0.20000000E-01    3    0
 VARIABLES= X1,X2,Y1,Y2,R,ID,RK
ZONE T="  144" 
SOLUTIONTIME=     0.07150000,STRANDID=   1
  0.30000000E+00  0.21999101E+00  0.00000000E+00 -0.17978859E-01  0.20000000E-01    1    0
  0.30000000E+00  0.25999156E+00  0.00000000E+00 -0.49033253E-02  0.20000000E-01    2    0
  0.30000000E+00  0.29999156E+00  0.00000000E+00 -0.49033253E-02  0.20000000E-01    3    0
 VARIABLES= X1,X2,Y1,Y2,R,ID,RK
ZONE T="  146" 
SOLUTIONTIME=     0.07250000,STRANDID=   1
  0.30000000E+00  0.21998801E+00  0.00000000E+00 -0.23971812E-01  0.20000000E-01    1    0
  0.30000000E+00  0.25998856E+00  0.00000000E+00  0.38136975E-02  0.20000000E-01    2    0
  0.30000000E+00  0.29998856E+00  0.00000000E+00  0.38136975E-02  0.20000000E-01    3    0
 VARIABLES= X1,X2,Y1,Y2,R,ID,RK
ZONE T="  148" 
SOLUTIONTIME=     0.07350000,STRANDID=   1
  0.30000000E+00  0.21999283E+00  0.00000000E+00 -0.14346766E-01  0.20000000E-01    1    0
  0.30000000E+00  0.25999337E+00  0.00000000E+00  0.10714674E-01  0.20000000E-01    2    0
  0.30000000E+00  0.29999337E+00  0.00000000E+00  0.10714674E-01  0.20000000E-01    3    0
 VARIABLES= X1,X2,Y1,Y2,R,ID,RK
ZONE T="  150" 
SOLUTIONTIME=     0.07450000,STRANDID=   1
  0.30000000E+00  0.21999903E+00  0.00000000E+00 -0.19371160E-02  0.20000000E-01    1    0
  0.30000000E+00  0.25999958E+00  0.00000000E+00  0.65983019E-02  0.20000000E-01    2    0
  0.30000000E+00  0.29999958E+00  0.00000000E+00  0.65983019E-02  0.20000000E-01    3    0
 VARIABLES= X1,X2,Y1,Y2,R,ID,RK
ZONE T="  152" 
SOLUTIONTIME=     0.07550000,STRANDID=   1
  0.30000000E+00  0.21999852E+00  0.00000000E+00 -0.29662092E-02  0.20000000E-01    1    0
  0.30000000E+00  0.25999882E+00  0.00000000E+00 -0.32083486E-02  0.20000000E-01    2    0
  0.30000000E+00  0.29999882E+00  0.00000000E+00 -0.32083486E-02  0.20000000E-01    3    0
 VARIABLES= X1,X2,Y1,Y2,R,ID,RK
ZONE T="  154" 
SOLUTIONTIME=     0.07650000,STRANDID=   1
  0.30000000E+00  0.21999165E+00  0.00000000E+00 -0.16707627E-01  0.20000000E-01    1    0
  0.30000000E+00  0.25999195E+00  0.00000000E+00 -0.56297437E-02  0.20000000E-01    2    0
  0.30000000E+00  0.29999195E+00  0.00000000E+00 -0.56297437E-02  0.20000000E-01    3    0
 VARIABLES= X1,X2,Y1,Y2,R,ID,RK
ZONE T="  156" 
SOLUTIONTIME=     0.07750000,STRANDID=   1
  0.30000000E+00  0.21998774E+00  0.00000000E+00 -0.24516626E-01  0.20000000E-01    1    0
  0.30000000E+00  0.25998804E+00  0.00000000E+00  0.27240696E-02  0.20000000E-01    2    0
  0.30000000E+00  0.29998804E+00  0.00000000E+00  0.27240696E-02  0.20000000E-01    3    0
 VARIABLES= X1,X2,Y1,Y2,R,ID,RK
ZONE T="  158" 
SOLUTIONTIME=     0.07850000,STRANDID=   1
  0.30000000E+00  0.21999201E+00  0.00000000E+00 -0.15981208E-01  0.20000000E-01    1    0
  0.30000000E+00  0.25999231E+00  0.00000000E+00  0.10714674E-01  0.20000000E-01    2    0
  0.30000000E+00  0.29999231E+00  0.00000000E+00  0.10714674E-01  0.20000000E-01    3    0
 VARIABLES= X1,X2,Y1,Y2,R,ID,RK
ZONE T="  160" 
SOLUTIONTIME=     0.07950000,STRANDID=   1
  0.30000000E+00  0.21999876E+00  0.00000000E+00 -0.24819301E-02  0.20000000E-01    1    0
  0.30000000E+00  0.25999906E+00  0.00000000E+00  0.76879296E-02  0.20000000E-01    2    0
  0.30000000E+00  0.29999906E+00  0.00000000E+00  0.76879296E-02  0.20000000E-01    3    0
 VARIABLES= X1,X2,Y1,Y2,R,ID,RK
ZONE T="  162" 
SOLUTIONTIME=     0.08050000,STRANDID=   1
  0.30000000E+00  0.21999879E+00  0.00000000E+00 -0.24213951E-02  0.20000000E-01    1    0
  0.30000000E+00  0.25999939E+00  0.00000000E+00 -0.21187209E-02  0.20000000E-01    2    0
  0.30000000E+00  0.29999939E+00  0.00000000E+00 -0.21187209E-02  0.20000000E-01    3    0
 VARIABLES= X1,X2,Y1,Y2,R,ID,RK
ZONE T="  164" 
SOLUTIONTIME=     0.08150000,STRANDID=   1
  0.30000000E+00  0.21999246E+00  0.00000000E+00 -0.15073185E-01  0.20000000E-01    1    0
  0.30000000E+00  0.25999307E+00  0.00000000E+00 -0.56297439E-02  0.20000000E-01    2    0
  0.30000000E+00  0.29999307E+00  0.00000000E+00 -0.56297439E-02  0.20000000E-01    3    0
 VARIABLES= X1,X2,Y1,Y2,R,ID,RK
ZONE T="  166" 
SOLUTIONTIME=     0.08250000,STRANDID=   1