 VARIABLES= X1,X2,Y1,Y2,R,ID,RK
ZONE T="    2" 
SOLUTIONTIME=     0.00100000,STRANDID=   1
  0.99760895E+00  0.28537953E+00 -0.72337706E+00  0.00000000E+00  0.20000000E-01    1    0
  0.13638286E-02  0.28537953E+00  0.20976771E+00  0.00000000E+00  0.20000000E-01    2    0
 VARIABLES= X1,X2,Y1,Y2,R,ID,RK
ZONE T="    4" 
SOLUTIONTIME=     0.00300000,STRANDID=   1
  0.99616220E+00  0.28537953E+00 -0.72337706E+00  0.00000000E+00  0.20000000E-01    1    0
  0.17833640E-02  0.28537953E+00  0.20976771E+00  0.00000000E+00  0.20000000E-01    2    0
 VARIABLES= X1,X2,Y1,Y2,R,ID,RK
ZONE T="    6" 
SOLUTIONTIME=     0.00500000,STRANDID=   1
  0.99471544E+00  0.28537953E+00 -0.72337706E+00  0.00000000E+00  0.20000000E-01    1    0
  0.22028994E-02  0.28537953E+00  0.20976771E+00  0.00000000E+00  0.20000000E-01    2    0
 VARIABLES= X1,X2,Y1,Y2,R,ID,RK
ZONE T="    8" 
SOLUTIONTIME=     0.00700000,STRANDID=   1
  0.99326869E+00  0.28537953E+00 -0.72337706E+00  0.00000000E+00  0.20000000E-01    1    0
  0.26224348E-02  0.28537953E+00  0.20976771E+00  0.00000000E+00  0.20000000E-01    2    0
 VARIABLES= X1,X2,Y1,Y2,R,ID,RK
ZONE T="   10" 
SOLUTIONTIME=     0.00900000,STRANDID=   1
  0.99182194E+00  0.28537953E+00 -0.72337706E+00  0.00000000E+00  0.20000000E-01    1    0
  0.30419702E-02  0.28537953E+00  0.20976771E+00  0.00000000E+00  0.20000000E-01    2    0
 VARIABLES= X1,X2,Y1,Y2,R,ID,RK
ZONE T="   12" 
SOLUTIONTIME=     0.01100000,STRANDID=   1
  0.99037518E+00  0.28537953E+00 -0.72337706E+00  0.00000000E+00  0.20000000E-01    1    0
  0.34615057E-02  0.28537953E+00  0.20976771E+00  0.00000000E+00  0.20000000E-01    2    0
 VARIABLES= X1,X2,Y1,Y2,R,ID,RK
ZONE T="   14" 
SOLUTIONTIME=     0.01300000,STRANDID=   1
  0.98892843E+00  0.28537953E+00 -0.72337706E+00  0.00000000E+00  0.20000000E-01    1    0
  0.38810411E-02  0.28537953E+00  0.20976771E+00  0.00000000E+00  0.20000000E-01    2    0
 VARIABLES= X1,X2,Y1,Y2,R,ID,RK
ZONE T="   16" 
SOLUTIONTIME=     0.01500000,STRANDID=   1
  0.98748167E+00  0.28537953E+00 -0.72337706E+00  0.00000000E+00  0.20000000E-01    1    0
  0.43005765E-02  0.28537953E+00  0.20976771E+00  0.00000000E+00  0.20000000E-01    2    0
 VARIABLES= X1,X2,Y1,Y2,R,ID,RK
ZONE T="   18" 
SOLUTIONTIME=     0.01700000,STRANDID=   1
  0.98603492E+00  0.28537953E+00 -0.72337706E+00  0.00000000E+00  0.20000000E-01    1    0
  0.47201119E-02  0.28537953E+00  0.20976771E+00  0.00000000E+00  0.20000000E-01    2    0
 VARIABLES= X1,X2,Y1,Y2,R,ID,RK
ZONE T="   20" 
SOLUTIONTIME=     0.01900000,STRANDID=   1
  0.98458817E+00  0.28537953E+00 -0.72337706E+00  0.00000000E+00  0.20000000E-01    1    0
  0.51396473E-02  0.28537953E+00  0.20976771E+00  0.00000000E+00  0.20000000E-01    2    0
 VARIABLES= X1,X2,Y1,Y2,R,ID,RK
ZONE T="   22" 
SOLUTIONTIME=     0.02100000,STRANDID=   1
  0.98314141E+00  0.28537953E+00 -0.72337706E+00  0.00000000E+00  0.20000000E-01    1    0
  0.55591827E-02  0.28537953E+00  0.20976771E+00  0.00000000E+00  0.20000000E-01    2    0
 VARIABLES= X1,X2,Y1,Y2,R,ID,RK
ZONE T="   24" 
SOLUTIONTIME=     0.02300000,STRANDID=   1
  0.98169466E+00  0.28537953E+00 -0.72337706E+00  0.00000000E+00  0.20000000E-01    1    0
  0.59787181E-02  0.28537953E+00  0.20976771E+00  0.00000000E+00  0.20000000E-01    2    0
 VARIABLES= X1,X2,Y1,Y2,R,ID,RK
ZONE T="   26" 
SOLUTIONTIME=     0.02500000,STRANDID=   1
  0.98024790E+00  0.28537953E+00 -0.72337706E+00  0.00000000E+00  0.20000000E-01    1    0
  0.63982536E-02  0.28537953E+00  0.20976771E+00  0.00000000E+00  0.20000000E-01    2    0
 VARIABLES= X1,X2,Y1,Y2,R,ID,RK
ZONE T="   28" 
SOLUTIONTIME=     0.02700000,STRANDID=   1
  0.97880115E+00  0.28537953E+00 -0.72337706E+00  0.00000000E+00  0.20000000E-01    1    0
  0.68177890E-02  0.28537953E+00  0.20976771E+00  0.00000000E+00  0.20000000E-01    2    0
 VARIABLES= X1,X2,Y1,Y2,R,ID,RK
ZONE T="   30" 
SOLUTIONTIME=     0.02900000,STRANDID=   1
  0.97735440E+00  0.28537953E+00 -0.72337706E+00  0.00000000E+00  0.20000000E-01    1    0
  0.72373244E-02  0.28537953E+00  0.20976771E+00  0.00000000E+00  0.20000000E-01    2    0
 VARIABLES= X1,X2,Y1,Y2,R,ID,RK
ZONE T="   32" 
SOLUTIONTIME=     0.03100000,STRANDID=   1
  0.97590764E+00  0.28537953E+00 -0.72337706E+00  0.00000000E+00  0.20000000E-01    1    0
  0.76568598E-02  0.28537953E+00  0.20976771E+00  0.00000000E+00  0.20000000E-01    2    0
 VARIABLES= X1,X2,Y1,Y2,R,ID,RK
ZONE T="   34" 
SOLUTIONTIME=     0.03300000,STRANDID=   1
  0.97446089E+00  0.28537953E+00 -0.72337706E+00  0.00000000E+00  0.20000000E-01    1    0
  0.80763952E-02  0.28537953E+00  0.20976771E+00  0.00000000E+00  0.20000000E-01    2    0
 VARIABLES= X1,X2,Y1,Y2,R,ID,RK
ZONE T="   36" 
SOLUTIONTIME=     0.03500000,STRANDID=   1
  0.97301413E+00  0.28537953E+00 -0.72337706E+00  0.00000000E+00  0.20000000E-01    1    0
  0.84959306E-02  0.28537953E+00  0.20976771E+00  0.00000000E+00  0.20000000E-01    2    0
 VARIABLES= X1,X2,Y1,Y2,R,ID,RK
ZONE T="   38" 
SOLUTIONTIME=     0.03700000,STRANDID=   1
  0.97156738E+00  0.28537953E+00 -0.72337706E+00  0.00000000E+00  0.20000000E-01    1    0
  0.89154661E-02  0.28537953E+00  0.20976771E+00  0.00000000E+00  0.20000000E-01    2    0
 VARIABLES= X1,X2,Y1,Y2,R,ID,RK
ZONE T="   40" 
SOLUTIONTIME=     0.03900000,STRANDID=   1
  0.97012062E+00  0.28537953E+00 -0.72337706E+00  0.00000000E+00  0.20000000E-01    1    0
  0.93350015E-02  0.28537953E+00  0.20976771E+00  0.00000000E+00  0.20000000E-01    2    0
 VARIABLES= X1,X2,Y1,Y2,R,ID,RK
ZONE T="   42" 
SOLUTIONTIME=     0.04100000,STRANDID=   1
  0.96867387E+00  0.28537953E+00 -0.72337706E+00  0.00000000E+00  0.20000000E-01    1    0
  0.97545369E-02  0.28537953E+00  0.20976771E+00  0.00000000E+00  0.20000000E-01    2    0
 VARIABLES= X1,X2,Y1,Y2,R,ID,RK
ZONE T="   44" 
SOLUTIONTIME=     0.04300000,STRANDID=   1
  0.96722712E+00  0.28537953E+00 -0.72337706E+00  0.00000000E+00  0.20000000E-01    1    0
  0.10174072E-01  0.28537953E+00  0.20976771E+00  0.00000000E+00  0.20000000E-01    2    0
 VARIABLES= X1,X2,Y1,Y2,R,ID,RK
ZONE T="   46" 
SOLUTIONTIME=     0.04500000,STRANDID=   1
  0.96578036E+00  0.28537953E+00 -0.72337706E+00  0.00000000E+00  0.20000000E-01    1    0
  0.10593608E-01  0.28537953E+00  0.20976771E+00  0.00000000E+00  0.20000000E-01    2    0
 VARIABLES= X1,X2,Y1,Y2,R,ID,RK
ZONE T="   48" 
SOLUTIONTIME=     0.04700000,STRANDID=   1
  0.96433361E+00  0.28537953E+00 -0.72337706E+00  0.00000000E+00  0.20000000E-01    1    0
  0.11013143E-01  0.28537953E+00  0.20976771E+00  0.00000000E+00  0.20000000E-01    2    0
 VARIABLES= X1,X2,Y1,Y2,R,ID,RK
ZONE T="   50" 
SOLUTIONTIME=     0.04900000,STRANDID=   1
  0.96288685E+00  0.28537953E+00 -0.72337706E+00  0.00000000E+00  0.20000000E-01    1    0
  0.11432679E-01  0.28537953E+00  0.20976771E+00  0.00000000E+00  0.20000000E-01    2    0
 VARIABLES= X1,X2,Y1,Y2,R,ID,RK
ZONE T="   52" 
SOLUTIONTIME=     0.05100000,STRANDID=   1
  0.96144010E+00  0.28537953E+00 -0.72337706E+00  0.00000000E+00  0.20000000E-01    1    0
  0.11852214E-01  0.28537953E+00  0.20976771E+00  0.00000000E+00  0.20000000E-01    2    0
 VARIABLES= X1,X2,Y1,Y2,R,ID,RK
ZONE T="   54" 
SOLUTIONTIME=     0.05300000,STRANDID=   1
  0.95999335E+00  0.28537953E+00 -0.72337706E+00  0.00000000E+00  0.20000000E-01    1    0
  0.12271749E-01  0.28537953E+00  0.20976771E+00  0.00000000E+00  0.20000000E-01    2    0
 VARIABLES= X1,X2,Y1,Y2,R,ID,RK
ZONE T="   56" 
SOLUTIONTIME=     0.05500000,STRANDID=   1
  0.95854659E+00  0.28537953E+00 -0.72337706E+00  0.00000000E+00  0.20000000E-01    1    0
  0.12691285E-01  0.28537953E+00  0.20976771E+00  0.00000000E+00  0.20000000E-01    2    0
 VARIABLES= X1,X2,Y1,Y2,R,ID,RK
ZONE T="   58" 
SOLUTIONTIME=     0.05700000,STRANDID=   1
  0.95709984E+00  0.28537953E+00 -0.72337706E+00  0.00000000E+00  0.20000000E-01    1    0
  0.13110820E-01  0.28537953E+00  0.20976771E+00  0.00000000E+00  0.20000000E-01    2    0
 VARIABLES= X1,X2,Y1,Y2,R,ID,RK
ZONE T="   60" 
SOLUTIONTIME=     0.05900000,STRANDID=   1
  0.95565308E+00  0.28537953E+00 -0.72337706E+00  0.00000000E+00  0.20000000E-01    1    0
  0.13530356E-01  0.28537953E+00  0.20976771E+00  0.00000000E+00  0.20000000E-01    2    0
 VARIABLES= X1,X2,Y1,Y2,R,ID,RK
ZONE T="   62" 
SOLUTIONTIME=     0.06100000,STRANDID=   1
  0.95420633E+00  0.28537953E+00 -0.72337706E+00  0.00000000E+00  0.20000000E-01    1    0
  0.13949891E-01  0.28537953E+00  0.20976771E+00  0.00000000E+00  0.20000000E-01    2    0
 VARIABLES= X1,X2,Y1,Y2,R,ID,RK
ZONE T="   64" 
SOLUTIONTIME=     0.06300000,STRANDID=   1
  0.95275958E+00  0.28537953E+00 -0.72337706E+00  0.00000000E+00  0.20000000E-01    1    0
  0.14369426E-01  0.28537953E+00  0.20976771E+00  0.00000000E+00  0.20000000E-01    2    0
 VARIABLES= X1,X2,Y1,Y2,R,ID,RK
ZONE T="   66" 
SOLUTIONTIME=     0.06500000,STRANDID=   1
  0.95131282E+00  0.28537953E+00 -0.72337706E+00  0.00000000E+00  0.20000000E-01    1    0
  0.14788962E-01  0.28537953E+00  0.20976771E+00  0.00000000E+00  0.20000000E-01    2    0
 VARIABLES= X1,X2,Y1,Y2,R,ID,RK
ZONE T="   68" 
SOLUTIONTIME=     0.06700000,STRANDID=   1
  0.94986607E+00  0.28537953E+00 -0.72337706E+00  0.00000000E+00  0.20000000E-01    1    0
  0.15208497E-01  0.28537953E+00  0.20976771E+00  0.00000000E+00  0.20000000E-01    2    0
 VARIABLES= X1,X2,Y1,Y2,R,ID,RK
ZONE T="   70" 
SOLUTIONTIME=     0.06900000,STRANDID=   1
  0.94841931E+00  0.28537953E+00 -0.72337706E+00  0.00000000E+00  0.20000000E-01    1    0
  0.15628033E-01  0.28537953E+00  0.20976771E+00  0.00000000E+00  0.20000000E-01    2    0
 VARIABLES= X1,X2,Y1,Y2,R,ID,RK
ZONE T="   72" 
SOLUTIONTIME=     0.07100000,STRANDID=   1
  0.94697256E+00  0.28537953E+00 -0.72337706E+00  0.00000000E+00  0.20000000E-01    1    0
  0.16047568E-01  0.28537953E+00  0.20976771E+00  0.00000000E+00  0.20000000E-01    2    0
 VARIABLES= X1,X2,Y1,Y2,R,ID,RK
ZONE T="   74" 
SOLUTIONTIME=     0.07300000,STRANDID=   1
  0.94552580E+00  0.28537953E+00 -0.72337706E+00  0.00000000E+00  0.20000000E-01    1    0
  0.16467104E-01  0.28537953E+00  0.20976771E+00  0.00000000E+00  0.20000000E-01    2    0
 VARIABLES= X1,X2,Y1,Y2,R,ID,RK
ZONE T="   76" 
SOLUTIONTIME=     0.07500000,STRANDID=   1
  0.94407905E+00  0.28537953E+00 -0.72337706E+00  0.00000000E+00  0.20000000E-01    1    0
  0.16886639E-01  0.28537953E+00  0.20976771E+00  0.00000000E+00  0.20000000E-01    2    0
 VARIABLES= X1,X2,Y1,Y2,R,ID,RK
ZONE T="   78" 
SOLUTIONTIME=     0.07700000,STRANDID=   1
  0.94263230E+00  0.28537953E+00 -0.72337706E+00  0.00000000E+00  0.20000000E-01    1    0
  0.17306174E-01  0.28537953E+00  0.20976771E+00  0.00000000E+00  0.20000000E-01    2    0
 VARIABLES= X1,X2,Y1,Y2,R,ID,RK
ZONE T="   80" 
SOLUTIONTIME=     0.07900000,STRANDID=   1
  0.94118554E+00  0.28537953E+00 -0.72337706E+00  0.00000000E+00  0.20000000E-01    1    0
  0.17725710E-01  0.28537953E+00  0.20976771E+00  0.00000000E+00  0.20000000E-01    2    0
 VARIABLES= X1,X2,Y1,Y2,R,ID,RK
ZONE T="   82" 
SOLUTIONTIME=     0.08100000,STRANDID=   1
  0.93973879E+00  0.28537953E+00 -0.72337706E+00  0.00000000E+00  0.20000000E-01    1    0
  0.18145245E-01  0.28537953E+00  0.20976771E+00  0.00000000E+00  0.20000000E-01    2    0
 VARIABLES= X1,X2,Y1,Y2,R,ID,RK
ZONE T="   84" 
SOLUTIONTIME=     0.08300000,STRANDID=   1
  0.93829203E+00  0.28537953E+00 -0.72337706E+00  0.00000000E+00  0.20000000E-01    1    0
  0.18564781E-01  0.28537953E+00  0.20976771E+00  0.00000000E+00  0.20000000E-01    2    0
 VARIABLES= X1,X2,Y1,Y2,R,ID,RK
ZONE T="   86" 
SOLUTIONTIME=     0.08500000,STRANDID=   1
  0.93684528E+00  0.28537953E+00 -0.72337706E+00  0.00000000E+00  0.20000000E-01    1    0
  0.18984316E-01  0.28537953E+00  0.20976771E+00  0.00000000E+00  0.20000000E-01    2    0
 VARIABLES= X1,X2,Y1,Y2,R,ID,RK
ZONE T="   88" 
SOLUTIONTIME=     0.08700000,STRANDID=   1
  0.93539853E+00  0.28537953E+00 -0.72337706E+00  0.00000000E+00  0.20000000E-01    1    0
  0.19403851E-01  0.28537953E+00  0.20976771E+00  0.00000000E+00  0.20000000E-01    2    0
 VARIABLES= X1,X2,Y1,Y2,R,ID,RK
ZONE T="   90" 
SOLUTIONTIME=     0.08900000,STRANDID=   1
  0.93395177E+00  0.28537953E+00 -0.72337706E+00  0.00000000E+00  0.20000000E-01    1    0
  0.19823387E-01  0.28537953E+00  0.20976771E+00  0.00000000E+00  0.20000000E-01    2    0
 VARIABLES= X1,X2,Y1,Y2,R,ID,RK
ZONE T="   92" 
SOLUTIONTIME=     0.09100000,STRANDID=   1
  0.93250502E+00  0.28537953E+00 -0.72337706E+00  0.00000000E+00  0.20000000E-01    1    0
  0.20242922E-01  0.28537953E+00  0.20976771E+00  0.00000000E+00  0.20000000E-01    2    0
 VARIABLES= X1,X2,Y1,Y2,R,ID,RK
ZONE T="   94" 
SOLUTIONTIME=     0.09300000,STRANDID=   1
  0.93105826E+00  0.28537953E+00 -0.72337706E+00  0.00000000E+00  0.20000000E-01    1    0
  0.20662458E-01  0.28537953E+00  0.20976771E+00  0.00000000E+00  0.20000000E-01    2    0
 VARIABLES= X1,X2,Y1,Y2,R,ID,RK
ZONE T="   96" 
SOLUTIONTIME=     0.09500000,STRANDID=   1
  0.92961151E+00  0.28537953E+00 -0.72337706E+00  0.00000000E+00  0.20000000E-01    1    0
  0.21081993E-01  0.28537953E+00  0.20976771E+00  0.00000000E+00  0.20000000E-01    2    0
 VARIABLES= X1,X2,Y1,Y2,R,ID,RK
ZONE T="   98" 
SOLUTIONTIME=     0.09700000,STRANDID=   1
  0.92816476E+00  0.28537953E+00 -0.72337706E+00  0.00000000E+00  0.20000000E-01    1    0
  0.21501529E-01  0.28537953E+00  0.20976771E+00  0.00000000E+00  0.20000000E-01    2    0
 VARIABLES= X1,X2,Y1,Y2,R,ID,RK
ZONE T="  100" 
SOLUTIONTIME=     0.09900000,STRANDID=   1
  0.92671800E+00  0.28537953E+00 -0.72337706E+00  0.00000000E+00  0.20000000E-01    1    0
  0.21921064E-01  0.28537953E+00  0.20976771E+00  0.00000000E+00  0.20000000E-01    2    0
 VARIABLES= X1,X2,Y1,Y2,R,ID,RK
ZONE T="  102" 
SOLUTIONTIME=     0.10100000,STRANDID=   1
  0.92527125E+00  0.28537953E+00 -0.72337706E+00  0.00000000E+00  0.20000000E-01    1    0
  0.22340599E-01  0.28537953E+00  0.20976771E+00  0.00000000E+00  0.20000000E-01    2    0
 VARIABLES= X1,X2,Y1,Y2,R,ID,RK
ZONE T="  104" 
SOLUTIONTIME=     0.10300000,STRANDID=   1
  0.92382449E+00  0.28537953E+00 -0.72337706E+00  0.00000000E+00  0.20000000E-01    1    0
  0.22760135E-01  0.28537953E+00  0.20976771E+00  0.00000000E+00  0.20000000E-01    2    0
 VARIABLES= X1,X2,Y1,Y2,R,ID,RK
ZONE T="  106" 
SOLUTIONTIME=     0.10500000,STRANDID=   1
  0.92237774E+00  0.28537953E+00 -0.72337706E+00  0.00000000E+00  0.20000000E-01    1    0
  0.23179670E-01  0.28537953E+00  0.20976771E+00  0.00000000E+00  0.20000000E-01    2    0
 VARIABLES= X1,X2,Y1,Y2,R,ID,RK
ZONE T="  108" 
SOLUTIONTIME=     0.10700000,STRANDID=   1
  0.92093098E+00  0.28537953E+00 -0.72337706E+00  0.00000000E+00  0.20000000E-01    1    0
  0.23599206E-01  0.28537953E+00  0.20976771E+00  0.00000000E+00  0.20000000E-01    2    0
 VARIABLES= X1,X2,Y1,Y2,R,ID,RK
ZONE T="  110" 
SOLUTIONTIME=     0.10900000,STRANDID=   1
  0.91948423E+00  0.28537953E+00 -0.72337706E+00  0.00000000E+00  0.20000000E-01    1    0
  0.24018741E-01  0.28537953E+00  0.20976771E+00  0.00000000E+00  0.20000000E-01    2    0
 VARIABLES= X1,X2,Y1,Y2,R,ID,RK
ZONE T="  112" 
SOLUTIONTIME=     0.11100000,STRANDID=   1
  0.91803748E+00  0.28537953E+00 -0.72337706E+00  0.00000000E+00  0.20000000E-01    1    0
  0.24438276E-01  0.28537953E+00  0.20976771E+00  0.00000000E+00  0.20000000E-01    2    0
 VARIABLES= X1,X2,Y1,Y2,R,ID,RK
ZONE T="  114" 
SOLUTIONTIME=     0.11300000,STRANDID=   1
  0.91659072E+00  0.28537953E+00 -0.72337706E+00  0.00000000E+00  0.20000000E-01    1    0
  0.24857812E-01  0.28537953E+00  0.20976771E+00  0.00000000E+00  0.20000000E-01    2    0
 VARIABLES= X1,X2,Y1,Y2,R,ID,RK
ZONE T="  116" 
SOLUTIONTIME=     0.11500000,STRANDID=   1
  0.91514397E+00  0.28537953E+00 -0.72337706E+00  0.00000000E+00  0.20000000E-01    1    0
  0.25277347E-01  0.28537953E+00  0.20976771E+00  0.00000000E+00  0.20000000E-01    2    0
 VARIABLES= X1,X2,Y1,Y2,R,ID,RK
ZONE T="  118" 
SOLUTIONTIME=     0.11700000,STRANDID=   1
  0.91369721E+00  0.28537953E+00 -0.72337706E+00  0.00000000E+00  0.20000000E-01    1    0
  0.25696883E-01  0.28537953E+00  0.20976771E+00  0.00000000E+00  0.20000000E-01    2    0
 VARIABLES= X1,X2,Y1,Y2,R,ID,RK
ZONE T="  120" 
SOLUTIONTIME=     0.11900000,STRANDID=   1
  0.91225046E+00  0.28537953E+00 -0.72337706E+00  0.00000000E+00  0.20000000E-01    1    0
  0.26116418E-01  0.28537953E+00  0.20976771E+00  0.00000000E+00  0.20000000E-01    2    0
 VARIABLES= X1,X2,Y1,Y2,R,ID,RK
ZONE T="  122" 
SOLUTIONTIME=     0.12100000,STRANDID=   1
  0.91080371E+00  0.28537953E+00 -0.72337706E+00  0.00000000E+00  0.20000000E-01    1    0
  0.26535953E-01  0.28537953E+00  0.20976771E+00  0.00000000E+00  0.20000000E-01    2    0
 VARIABLES= X1,X2,Y1,Y2,R,ID,RK
ZONE T="  124" 
SOLUTIONTIME=     0.12300000,STRANDID=   1
  0.90935695E+00  0.28537953E+00 -0.72337706E+00  0.00000000E+00  0.20000000E-01    1    0
  0.26955489E-01  0.28537953E+00  0.20976771E+00  0.00000000E+00  0.20000000E-01    2    0
 VARIABLES= X1,X2,Y1,Y2,R,ID,RK
ZONE T="  126" 
SOLUTIONTIME=     0.12500000,STRANDID=   1
  0.90791020E+00  0.28537953E+00 -0.72337706E+00  0.00000000E+00  0.20000000E-01    1    0
  0.27375024E-01  0.28537953E+00  0.20976771E+00  0.00000000E+00  0.20000000E-01    2    0
 VARIABLES= X1,X2,Y1,Y2,R,ID,RK
ZONE T="  128" 
SOLUTIONTIME=     0.12700000,STRANDID=   1
  0.90646344E+00  0.28537953E+00 -0.72337706E+00  0.00000000E+00  0.20000000E-01    1    0
  0.27794560E-01  0.28537953E+00  0.20976771E+00  0.00000000E+00  0.20000000E-01    2    0
 VARIABLES= X1,X2,Y1,Y2,R,ID,RK
ZONE T="  130" 
SOLUTIONTIME=     0.12900000,STRANDID=   1
  0.90501669E+00  0.28537953E+00 -0.72337706E+00  0.00000000E+00  0.20000000E-01    1    0
  0.28214095E-01  0.28537953E+00  0.20976771E+00  0.00000000E+00  0.20000000E-01    2    0
 VARIABLES= X1,X2,Y1,Y2,R,ID,RK
ZONE T="  132" 
SOLUTIONTIME=     0.13100000,STRANDID=   1
  0.90356994E+00  0.28537953E+00 -0.72337706E+00  0.00000000E+00  0.20000000E-01    1    0
  0.28633631E-01  0.28537953E+00  0.20976771E+00  0.00000000E+00  0.20000000E-01    2    0
 VARIABLES= X1,X2,Y1,Y2,R,ID,RK
ZONE T="  134" 
SOLUTIONTIME=     0.13300000,STRANDID=   1
  0.90212318E+00  0.28537953E+00 -0.72337706E+00  0.00000000E+00  0.20000000E-01    1    0
  0.29053166E-01  0.28537953E+00  0.20976771E+00  0.00000000E+00  0.20000000E-01    2    0
 VARIABLES= X1,X2,Y1,Y2,R,ID,RK
ZONE T="  136" 
SOLUTIONTIME=     0.13500000,STRANDID=   1
  0.90067643E+00  0.28537953E+00 -0.72337706E+00  0.00000000E+00  0.20000000E-01    1    0
  0.29472701E-01  0.28537953E+00  0.20976771E+00  0.00000000E+00  0.20000000E-01    2    0
 VARIABLES= X1,X2,Y1,Y2,R,ID,RK
ZONE T="  138" 
SOLUTIONTIME=     0.13700000,STRANDID=   1
  0.89922967E+00  0.28537953E+00 -0.72337706E+00  0.00000000E+00  0.20000000E-01    1    0
  0.29892237E-01  0.28537953E+00  0.20976771E+00  0.00000000E+00  0.20000000E-01    2    0
 VARIABLES= X1,X2,Y1,Y2,R,ID,RK
ZONE T="  140" 
SOLUTIONTIME=     0.13900000,STRANDID=   1
  0.89778292E+00  0.28537953E+00 -0.72337706E+00  0.00000000E+00  0.20000000E-01    1    0
  0.30311772E-01  0.28537953E+00  0.20976771E+00  0.00000000E+00  0.20000000E-01    2    0
 VARIABLES= X1,X2,Y1,Y2,R,ID,RK
ZONE T="  142" 
SOLUTIONTIME=     0.14100000,STRANDID=   1
  0.89633616E+00  0.28537953E+00 -0.72337706E+00  0.00000000E+00  0.20000000E-01    1    0
  0.30731308E-01  0.28537953E+00  0.20976771E+00  0.00000000E+00  0.20000000E-01    2    0
 VARIABLES= X1,X2,Y1,Y2,R,ID,RK
ZONE T="  144" 
SOLUTIONTIME=     0.14300000,STRANDID=   1
  0.89488941E+00  0.28537953E+00 -0.72337706E+00  0.00000000E+00  0.20000000E-01    1    0
  0.31150843E-01  0.28537953E+00  0.20976771E+00  0.00000000E+00  0.20000000E-01    2    0
 VARIABLES= X1,X2,Y1,Y2,R,ID,RK
ZONE T="  146" 
SOLUTIONTIME=     0.14500000,STRANDID=   1
  0.89344266E+00  0.28537953E+00 -0.72337706E+00  0.00000000E+00  0.20000000E-01    1    0
  0.31570378E-01  0.28537953E+00  0.20976771E+00  0.00000000E+00  0.20000000E-01    2    0
 VARIABLES= X1,X2,Y1,Y2,R,ID,RK
ZONE T="  148" 
SOLUTIONTIME=     0.14700000,STRANDID=   1
  0.89199590E+00  0.28537953E+00 -0.72337706E+00  0.00000000E+00  0.20000000E-01    1    0
  0.31989914E-01  0.28537953E+00  0.20976771E+00  0.00000000E+00  0.20000000E-01    2    0
 VARIABLES= X1,X2,Y1,Y2,R,ID,RK
ZONE T="  150" 
SOLUTIONTIME=     0.14900000,STRANDID=   1
  0.89054915E+00  0.28537953E+00 -0.72337706E+00  0.00000000E+00  0.20000000E-01    1    0
  0.32409449E-01  0.28537953E+00  0.20976771E+00  0.00000000E+00  0.20000000E-01    2    0
 VARIABLES= X1,X2,Y1,Y2,R,ID,RK
ZONE T="  152" 
SOLUTIONTIME=     0.15100000,STRANDID=   1
  0.88910239E+00  0.28537953E+00 -0.72337706E+00  0.00000000E+00  0.20000000E-01    1    0
  0.32828985E-01  0.28537953E+00  0.20976771E+00  0.00000000E+00  0.20000000E-01    2    0
 VARIABLES= X1,X2,Y1,Y2,R,ID,RK
ZONE T="  154" 
SOLUTIONTIME=     0.15300000,STRANDID=   1
  0.88765564E+00  0.28537953E+00 -0.72337706E+00  0.00000000E+00  0.20000000E-01    1    0
  0.33248520E-01  0.28537953E+00  0.20976771E+00  0.00000000E+00  0.20000000E-01    2    0
 VARIABLES= X1,X2,Y1,Y2,R,ID,RK
ZONE T="  156" 
SOLUTIONTIME=     0.15500000,STRANDID=   1
  0.88620889E+00  0.28537953E+00 -0.72337706E+00  0.00000000E+00  0.20000000E-01    1    0
  0.33668056E-01  0.28537953E+00  0.20976771E+00  0.00000000E+00  0.20000000E-01    2    0
 VARIABLES= X1,X2,Y1,Y2,R,ID,RK
ZONE T="  158" 
SOLUTIONTIME=     0.15700000,STRANDID=   1
  0.88476213E+00  0.28537953E+00 -0.72337706E+00  0.00000000E+00  0.20000000E-01    1    0
  0.34087591E-01  0.28537953E+00  0.20976771E+00  0.00000000E+00  0.20000000E-01    2    0
 VARIABLES= X1,X2,Y1,Y2,R,ID,RK
ZONE T="  160" 
SOLUTIONTIME=     0.15900000,STRANDID=   1
  0.88331538E+00  0.28537953E+00 -0.72337706E+00  0.00000000E+00  0.20000000E-01    1    0
  0.34507126E-01  0.28537953E+00  0.20976771E+00  0.00000000E+00  0.20000000E-01    2    0
 VARIABLES= X1,X2,Y1,Y2,R,ID,RK
ZONE T="  162" 
SOLUTIONTIME=     0.16100000,STRANDID=   1
  0.88186862E+00  0.28537953E+00 -0.72337706E+00  0.00000000E+00  0.20000000E-01    1    0
  0.34926662E-01  0.28537953E+00  0.20976771E+00  0.00000000E+00  0.20000000E-01    2    0
 VARIABLES= X1,X2,Y1,Y2,R,ID,RK
ZONE T="  164" 
SOLUTIONTIME=     0.16300000,STRANDID=   1
  0.88042187E+00  0.28537953E+00 -0.72337706E+00  0.00000000E+00  0.20000000E-01    1    0
  0.35346197E-01  0.28537953E+00  0.20976771E+00  0.00000000E+00  0.20000000E-01    2    0
 VARIABLES= X1,X2,Y1,Y2,R,ID,RK
ZONE T="  166" 
SOLUTIONTIME=     0.16500000,STRANDID=   1
  0.87897512E+00  0.28537953E+00 -0.72337706E+00  0.00000000E+00  0.20000000E-01    1    0
  0.35765733E-01  0.28537953E+00  0.20976771E+00  0.00000000E+00  0.20000000E-01    2    0
 VARIABLES= X1,X2,Y1,Y2,R,ID,RK
ZONE T="  168" 
SOLUTIONTIME=     0.16700000,STRANDID=   1
  0.87752836E+00  0.28537953E+00 -0.72337706E+00  0.00000000E+00  0.20000000E-01    1    0
  0.36185268E-01  0.28537953E+00  0.20976771E+00  0.00000000E+00  0.20000000E-01    2    0
 VARIABLES= X1,X2,Y1,Y2,R,ID,RK
ZONE T="  170" 
SOLUTIONTIME=     0.16900000,STRANDID=   1
  0.87608161E+00  0.28537953E+00 -0.72337706E+00  0.00000000E+00  0.20000000E-01    1    0
  0.36604803E-01  0.28537953E+00  0.20976771E+00  0.00000000E+00  0.20000000E-01    2    0
 VARIABLES= X1,X2,Y1,Y2,R,ID,RK
ZONE T="  172" 
SOLUTIONTIME=     0.17100000,STRANDID=   1
  0.87463485E+00  0.28537953E+00 -0.72337706E+00  0.00000000E+00  0.20000000E-01    1    0
  0.37024339E-01  0.28537953E+00  0.20976771E+00  0.00000000E+00  0.20000000E-01    2    0
 VARIABLES= X1,X2,Y1,Y2,R,ID,RK
ZONE T="  174" 
SOLUTIONTIME=     0.17300000,STRANDID=   1
  0.87318810E+00  0.28537953E+00 -0.72337706E+00  0.00000000E+00  0.20000000E-01    1    0
  0.37443874E-01  0.28537953E+00  0.20976771E+00  0.00000000E+00  0.20000000E-01    2    0
 VARIABLES= X1,X2,Y1,Y2,R,ID,RK
ZONE T="  176" 
SOLUTIONTIME=     0.17500000,STRANDID=   1
  0.87174134E+00  0.28537953E+00 -0.72337706E+00  0.00000000E+00  0.20000000E-01    1    0
  0.37863410E-01  0.28537953E+00  0.20976771E+00  0.00000000E+00  0.20000000E-01    2    0
 VARIABLES= X1,X2,Y1,Y2,R,ID,RK
ZONE T="  178" 
SOLUTIONTIME=     0.17700000,STRANDID=   1
  0.87029459E+00  0.28537953E+00 -0.72337706E+00  0.00000000E+00  0.20000000E-01    1    0
  0.38282945E-01  0.28537953E+00  0.20976771E+00  0.00000000E+00  0.20000000E-01    2    0
 VARIABLES= X1,X2,Y1,Y2,R,ID,RK
ZONE T="  180" 
SOLUTIONTIME=     0.17900000,STRANDID=   1
  0.86884784E+00  0.28537953E+00 -0.72337706E+00  0.00000000E+00  0.20000000E-01    1    0
  0.38702481E-01  0.28537953E+00  0.20976771E+00  0.00000000E+00  0.20000000E-01    2    0
 VARIABLES= X1,X2,Y1,Y2,R,ID,RK
ZONE T="  182" 
SOLUTIONTIME=     0.18100000,STRANDID=   1
  0.86740108E+00  0.28537953E+00 -0.72337706E+00  0.00000000E+00  0.20000000E-01    1    0
  0.39122016E-01  0.28537953E+00  0.20976771E+00  0.00000000E+00  0.20000000E-01    2    0
 VARIABLES= X1,X2,Y1,Y2,R,ID,RK
ZONE T="  184" 
SOLUTIONTIME=     0.18300000,STRANDID=   1
  0.86595433E+00  0.28537953E+00 -0.72337706E+00  0.00000000E+00  0.20000000E-01    1    0
  0.39541551E-01  0.28537953E+00  0.20976771E+00  0.00000000E+00  0.20000000E-01    2    0
 VARIABLES= X1,X2,Y1,Y2,R,ID,RK
ZONE T="  186" 
SOLUTIONTIME=     0.18500000,STRANDID=   1
  0.86450757E+00  0.28537953E+00 -0.72337706E+00  0.00000000E+00  0.20000000E-01    1    0
  0.39961087E-01  0.28537953E+00  0.20976771E+00  0.00000000E+00  0.20000000E-01    2    0
 VARIABLES= X1,X2,Y1,Y2,R,ID,RK
ZONE T="  188" 
SOLUTIONTIME=     0.18700000,STRANDID=   1
  0.86306082E+00  0.28537953E+00 -0.72337706E+00  0.00000000E+00  0.20000000E-01    1    0
  0.40380622E-01  0.28537953E+00  0.20976771E+00  0.00000000E+00  0.20000000E-01    2    0
 VARIABLES= X1,X2,Y1,Y2,R,ID,RK
ZONE T="  190" 
SOLUTIONTIME=     0.18900000,STRANDID=   1
  0.86161407E+00  0.28537953E+00 -0.72337706E+00  0.00000000E+00  0.20000000E-01    1    0
  0.40800158E-01  0.28537953E+00  0.20976771E+00  0.00000000E+00  0.20000000E-01    2    0
 VARIABLES= X1,X2,Y1,Y2,R,ID,RK
ZONE T="  192" 
SOLUTIONTIME=     0.19100000,STRANDID=   1
  0.86016731E+00  0.28537953E+00 -0.72337706E+00  0.00000000E+00  0.20000000E-01    1    0
  0.41219693E-01  0.28537953E+00  0.20976771E+00  0.00000000E+00  0.20000000E-01    2    0
 VARIABLES= X1,X2,Y1,Y2,R,ID,RK
ZONE T="  194" 
SOLUTIONTIME=     0.19300000,STRANDID=   1
  0.85872056E+00  0.28537953E+00 -0.72337706E+00  0.00000000E+00  0.20000000E-01    1    0
  0.41639228E-01  0.28537953E+00  0.20976771E+00  0.00000000E+00  0.20000000E-01    2    0
 VARIABLES= X1,X2,Y1,Y2,R,ID,RK
ZONE T="  196" 
SOLUTIONTIME=     0.19500000,STRANDID=   1
  0.85727380E+00  0.28537953E+00 -0.72337706E+00  0.00000000E+00  0.20000000E-01    1    0
  0.42058764E-01  0.28537953E+00  0.20976771E+00  0.00000000E+00  0.20000000E-01    2    0
 VARIABLES= X1,X2,Y1,Y2,R,ID,RK
ZONE T="  198" 
SOLUTIONTIME=     0.19700000,STRANDID=   1
  0.85582705E+00  0.28537953E+00 -0.72337706E+00  0.00000000E+00  0.20000000E-01    1    0
  0.42478299E-01  0.28537953E+00  0.20976771E+00  0.00000000E+00  0.20000000E-01    2    0
 VARIABLES= X1,X2,Y1,Y2,R,ID,RK
ZONE T="  200" 
SOLUTIONTIME=     0.19900000,STRANDID=   1
  0.85438030E+00  0.28537953E+00 -0.72337706E+00  0.00000000E+00  0.20000000E-01    1    0
  0.42897835E-01  0.28537953E+00  0.20976771E+00  0.00000000E+00  0.20000000E-01    2    0
 VARIABLES= X1,X2,Y1,Y2,R,ID,RK
ZONE T="  202" 
SOLUTIONTIME=     0.20100000,STRANDID=   1
  0.85293354E+00  0.28537953E+00 -0.72337706E+00  0.00000000E+00  0.20000000E-01    1    0
  0.43317370E-01  0.28537953E+00  0.20976771E+00  0.00000000E+00  0.20000000E-01    2    0
 VARIABLES= X1,X2,Y1,Y2,R,ID,RK
ZONE T="  204" 
SOLUTIONTIME=     0.20300000,STRANDID=   1
  0.85148679E+00  0.28537953E+00 -0.72337706E+00  0.00000000E+00  0.20000000E-01    1    0
  0.43736906E-01  0.28537953E+00  0.20976771E+00  0.00000000E+00  0.20000000E-01    2    0
 VARIABLES= X1,X2,Y1,Y2,R,ID,RK
ZONE T="  206" 
SOLUTIONTIME=     0.20500000,STRANDID=   1
  0.85004003E+00  0.28537953E+00 -0.72337706E+00  0.00000000E+00  0.20000000E-01    1    0
  0.44156441E-01  0.28537953E+00  0.20976771E+00  0.00000000E+00  0.20000000E-01    2    0
 VARIABLES= X1,X2,Y1,Y2,R,ID,RK
ZONE T="  208" 
SOLUTIONTIME=     0.20700000,STRANDID=   1
  0.84859328E+00  0.28537953E+00 -0.72337706E+00  0.00000000E+00  0.20000000E-01    1    0
  0.44575976E-01  0.28537953E+00  0.20976771E+00  0.00000000E+00  0.20000000E-01    2    0
 VARIABLES= X1,X2,Y1,Y2,R,ID,RK
ZONE T="  210" 
SOLUTIONTIME=     0.20900000,STRANDID=   1
  0.84714652E+00  0.28537953E+00 -0.72337706E+00  0.00000000E+00  0.20000000E-01    1    0
  0.44995512E-01  0.28537953E+00  0.20976771E+00  0.00000000E+00  0.20000000E-01    2    0
 VARIABLES= X1,X2,Y1,Y2,R,ID,RK
ZONE T="  212" 
SOLUTIONTIME=     0.21100000,STRANDID=   1
  0.84569977E+00  0.28537953E+00 -0.72337706E+00  0.00000000E+00  0.20000000E-01    1    0
  0.45415047E-01  0.28537953E+00  0.20976771E+00  0.00000000E+00  0.20000000E-01    2    0
 VARIABLES= X1,X2,Y1,Y2,R,ID,RK
ZONE T="  214" 
SOLUTIONTIME=     0.21300000,STRANDID=   1
  0.84425302E+00  0.28537953E+00 -0.72337706E+00  0.00000000E+00  0.20000000E-01    1    0
  0.45834583E-01  0.28537953E+00  0.20976771E+00  0.00000000E+00  0.20000000E-01    2    0
 VARIABLES= X1,X2,Y1,Y2,R,ID,RK
ZONE T="  216" 
SOLUTIONTIME=     0.21500000,STRANDID=   1
  0.84280626E+00  0.28537953E+00 -0.72337706E+00  0.00000000E+00  0.20000000E-01    1    0
  0.46254118E-01  0.28537953E+00  0.20976771E+00  0.00000000E+00  0.20000000E-01    2    0
 VARIABLES= X1,X2,Y1,Y2,R,ID,RK
ZONE T="  218" 
SOLUTIONTIME=     0.21700000,STRANDID=   1
  0.84135951E+00  0.28537953E+00 -0.72337706E+00  0.00000000E+00  0.20000000E-01    1    0
  0.46673653E-01  0.28537953E+00  0.20976771E+00  0.00000000E+00  0.20000000E-01    2    0
 VARIABLES= X1,X2,Y1,Y2,R,ID,RK
ZONE T="  220" 
SOLUTIONTIME=     0.21900000,STRANDID=   1
  0.83991275E+00  0.28537953E+00 -0.72337706E+00  0.00000000E+00  0.20000000E-01    1    0