 VARIABLES= X1,X2,Y1,Y2,R,ID,RK
ZONE T="    2" 
SOLUTIONTIME=     0.00100000,STRANDID=   1
  0.40000000E+00  0.39980000E+00  0.00000000E+00 -0.10000000E+00  0.20000000E-01    1    0
 VARIABLES= X1,X2,Y1,Y2,R,ID,RK
ZONE T="    4" 
SOLUTIONTIME=     0.00300000,STRANDID=   1
  0.40000000E+00  0.39960000E+00  0.00000000E+00 -0.10000000E+00  0.20000000E-01    1    0
 VARIABLES= X1,X2,Y1,Y2,R,ID,RK
ZONE T="    6" 
SOLUTIONTIME=     0.00500000,STRANDID=   1
  0.40000000E+00  0.39940000E+00  0.00000000E+00 -0.10000000E+00  0.20000000E-01    1    0
 VARIABLES= X1,X2,Y1,Y2,R,ID,RK
ZONE T="    8" 
SOLUTIONTIME=     0.00700000,STRANDID=   1
  0.40000000E+00  0.39920000E+00  0.00000000E+00 -0.10000000E+00  0.20000000E-01    1    0
 VARIABLES= X1,X2,Y1,Y2,R,ID,RK
ZONE T="   10" 
SOLUTIONTIME=     0.00900000,STRANDID=   1
  0.40000000E+00  0.39900000E+00  0.00000000E+00 -0.10000000E+00  0.20000000E-01    1    0
 VARIABLES= X1,X2,Y1,Y2,R,ID,RK
ZONE T="   12" 
SOLUTIONTIME=     0.01100000,STRANDID=   1
  0.40000000E+00  0.39880000E+00  0.00000000E+00 -0.10000000E+00  0.20000000E-01    1    0
 VARIABLES= X1,X2,Y1,Y2,R,ID,RK
ZONE T="   14" 
SOLUTIONTIME=     0.01300000,STRANDID=   1
  0.40000000E+00  0.39860000E+00  0.00000000E+00 -0.10000000E+00  0.20000000E-01    1    0
 VARIABLES= X1,X2,Y1,Y2,R,ID,RK
ZONE T="   16" 
SOLUTIONTIME=     0.01500000,STRANDID=   1
  0.40000000E+00  0.39840000E+00  0.00000000E+00 -0.10000000E+00  0.20000000E-01    1    0
 VARIABLES= X1,X2,Y1,Y2,R,ID,RK
ZONE T="   18" 
SOLUTIONTIME=     0.01700000,STRANDID=   1
  0.40000000E+00  0.39820000E+00  0.00000000E+00 -0.10000000E+00  0.20000000E-01    1    0
 VARIABLES= X1,X2,Y1,Y2,R,ID,RK
ZONE T="   20" 
SOLUTIONTIME=     0.01900000,STRANDID=   1
  0.40000000E+00  0.39800000E+00  0.00000000E+00 -0.10000000E+00  0.20000000E-01    1    0
 VARIABLES= X1,X2,Y1,Y2,R,ID,RK
ZONE T="   22" 
SOLUTIONTIME=     0.02100000,STRANDID=   1
  0.40000000E+00  0.39780000E+00  0.00000000E+00 -0.10000000E+00  0.20000000E-01    1    0
 VARIABLES= X1,X2,Y1,Y2,R,ID,RK
ZONE T="   24" 
SOLUTIONTIME=     0.02300000,STRANDID=   1
  0.40000000E+00  0.39760000E+00  0.00000000E+00 -0.10000000E+00  0.20000000E-01    1    0
 VARIABLES= X1,X2,Y1,Y2,R,ID,RK
ZONE T="   26" 
SOLUTIONTIME=     0.02500000,STRANDID=   1
  0.40000000E+00  0.39740000E+00  0.00000000E+00 -0.10000000E+00  0.20000000E-01    1    0
 VARIABLES= X1,X2,Y1,Y2,R,ID,RK
ZONE T="   28" 
SOLUTIONTIME=     0.02700000,STRANDID=   1
  0.40000000E+00  0.39720000E+00  0.00000000E+00 -0.10000000E+00  0.20000000E-01    1    0
 VARIABLES= X1,X2,Y1,Y2,R,ID,RK
ZONE T="   30" 
SOLUTIONTIME=     0.02900000,STRANDID=   1
  0.40000000E+00  0.39700000E+00  0.00000000E+00 -0.10000000E+00  0.20000000E-01    1    0
 VARIABLES= X1,X2,Y1,Y2,R,ID,RK
ZONE T="   32" 
SOLUTIONTIME=     0.03100000,STRANDID=   1
  0.40000000E+00  0.39680000E+00  0.00000000E+00 -0.10000000E+00  0.20000000E-01    1    0
 VARIABLES= X1,X2,Y1,Y2,R,ID,RK
ZONE T="   34" 
SOLUTIONTIME=     0.03300000,STRANDID=   1
  0.40000000E+00  0.39660000E+00  0.00000000E+00 -0.10000000E+00  0.20000000E-01    1    0
 VARIABLES= X1,X2,Y1,Y2,R,ID,RK
ZONE T="   36" 
SOLUTIONTIME=     0.03500000,STRANDID=   1
  0.40000000E+00  0.39640000E+00  0.00000000E+00 -0.10000000E+00  0.20000000E-01    1    0
 VARIABLES= X1,X2,Y1,Y2,R,ID,RK
ZONE T="   38" 
SOLUTIONTIME=     0.03700000,STRANDID=   1
  0.40000000E+00  0.39620000E+00  0.00000000E+00 -0.10000000E+00  0.20000000E-01    1    0
 VARIABLES= X1,X2,Y1,Y2,R,ID,RK
ZONE T="   40" 
SOLUTIONTIME=     0.03900000,STRANDID=   1
  0.40000000E+00  0.39600000E+00  0.00000000E+00 -0.10000000E+00  0.20000000E-01    1    0
 VARIABLES= X1,X2,Y1,Y2,R,ID,RK
ZONE T="   42" 
SOLUTIONTIME=     0.04100000,STRANDID=   1
  0.40000000E+00  0.39580000E+00  0.00000000E+00 -0.10000000E+00  0.20000000E-01    1    0
 VARIABLES= X1,X2,Y1,Y2,R,ID,RK
ZONE T="   44" 
SOLUTIONTIME=     0.04300000,STRANDID=   1
  0.40000000E+00  0.39560000E+00  0.00000000E+00 -0.10000000E+00  0.20000000E-01    1    0
 VARIABLES= X1,X2,Y1,Y2,R,ID,RK
ZONE T="   46" 
SOLUTIONTIME=     0.04500000,STRANDID=   1
  0.40000000E+00  0.39540000E+00  0.00000000E+00 -0.10000000E+00  0.20000000E-01    1    0
 VARIABLES= X1,X2,Y1,Y2,R,ID,RK
ZONE T="   48" 
SOLUTIONTIME=     0.04700000,STRANDID=   1
  0.40000000E+00  0.39520000E+00  0.00000000E+00 -0.10000000E+00  0.20000000E-01    1    0
 VARIABLES= X1,X2,Y1,Y2,R,ID,RK
ZONE T="   50" 
SOLUTIONTIME=     0.04900000,STRANDID=   1
  0.40000000E+00  0.39500000E+00  0.00000000E+00 -0.10000000E+00  0.20000000E-01    1    0
 VARIABLES= X1,X2,Y1,Y2,R,ID,RK
ZONE T="   52" 
SOLUTIONTIME=     0.05100000,STRANDID=   1
  0.40000000E+00  0.39480000E+00  0.00000000E+00 -0.10000000E+00  0.20000000E-01    1    0
 VARIABLES= X1,X2,Y1,Y2,R,ID,RK
ZONE T="   54" 
SOLUTIONTIME=     0.05300000,STRANDID=   1
  0.40000000E+00  0.39460000E+00  0.00000000E+00 -0.10000000E+00  0.20000000E-01    1    0
 VARIABLES= X1,X2,Y1,Y2,R,ID,RK
ZONE T="   56" 
SOLUTIONTIME=     0.05500000,STRANDID=   1
  0.40000000E+00  0.39440000E+00  0.00000000E+00 -0.10000000E+00  0.20000000E-01    1    0
 VARIABLES= X1,X2,Y1,Y2,R,ID,RK
ZONE T="   58" 
SOLUTIONTIME=     0.05700000,STRANDID=   1
  0.40000000E+00  0.39420000E+00  0.00000000E+00 -0.10000000E+00  0.20000000E-01    1    0
 VARIABLES= X1,X2,Y1,Y2,R,ID,RK
ZONE T="   60" 
SOLUTIONTIME=     0.05900000,STRANDID=   1
  0.40000000E+00  0.39400000E+00  0.00000000E+00 -0.10000000E+00  0.20000000E-01    1    0
 VARIABLES= X1,X2,Y1,Y2,R,ID,RK
ZONE T="   62" 
SOLUTIONTIME=     0.06100000,STRANDID=   1
  0.40000000E+00  0.39380000E+00  0.00000000E+00 -0.10000000E+00  0.20000000E-01    1    0
 VARIABLES= X1,X2,Y1,Y2,R,ID,RK
ZONE T="   64" 
SOLUTIONTIME=     0.06300000,STRANDID=   1
  0.40000000E+00  0.39360000E+00  0.00000000E+00 -0.10000000E+00  0.20000000E-01    1    0
 VARIABLES= X1,X2,Y1,Y2,R,ID,RK
ZONE T="   66" 
SOLUTIONTIME=     0.06500000,STRANDID=   1
  0.40000000E+00  0.39340000E+00  0.00000000E+00 -0.10000000E+00  0.20000000E-01    1    0
 VARIABLES= X1,X2,Y1,Y2,R,ID,RK
ZONE T="   68" 
SOLUTIONTIME=     0.06700000,STRANDID=   1
  0.40000000E+00  0.39320000E+00  0.00000000E+00 -0.10000000E+00  0.20000000E-01    1    0
 VARIABLES= X1,X2,Y1,Y2,R,ID,RK
ZONE T="   70" 
SOLUTIONTIME=     0.06900000,STRANDID=   1
  0.40000000E+00  0.39300000E+00  0.00000000E+00 -0.10000000E+00  0.20000000E-01    1    0
 VARIABLES= X1,X2,Y1,Y2,R,ID,RK
ZONE T="   72" 
SOLUTIONTIME=     0.07100000,STRANDID=   1
  0.40000000E+00  0.39280000E+00  0.00000000E+00 -0.10000000E+00  0.20000000E-01    1    0
 VARIABLES= X1,X2,Y1,Y2,R,ID,RK
ZONE T="   74" 
SOLUTIONTIME=     0.07300000,STRANDID=   1
  0.40000000E+00  0.39260000E+00  0.00000000E+00 -0.10000000E+00  0.20000000E-01    1    0
 VARIABLES= X1,X2,Y1,Y2,R,ID,RK
ZONE T="   76" 
SOLUTIONTIME=     0.07500000,STRANDID=   1
  0.40000000E+00  0.39240000E+00  0.00000000E+00 -0.10000000E+00  0.20000000E-01    1    0
 VARIABLES= X1,X2,Y1,Y2,R,ID,RK
ZONE T="   78" 
SOLUTIONTIME=     0.07700000,STRANDID=   1
  0.40000000E+00  0.39220000E+00  0.00000000E+00 -0.10000000E+00  0.20000000E-01    1    0
 VARIABLES= X1,X2,Y1,Y2,R,ID,RK
ZONE T="   80" 
SOLUTIONTIME=     0.07900000,STRANDID=   1
  0.40000000E+00  0.39200000E+00  0.00000000E+00 -0.10000000E+00  0.20000000E-01    1    0
 VARIABLES= X1,X2,Y1,Y2,R,ID,RK
ZONE T="   82" 
SOLUTIONTIME=     0.08100000,STRANDID=   1
  0.40000000E+00  0.39180000E+00  0.00000000E+00 -0.10000000E+00  0.20000000E-01    1    0
 VARIABLES= X1,X2,Y1,Y2,R,ID,RK
ZONE T="   84" 
SOLUTIONTIME=     0.08300000,STRANDID=   1
  0.40000000E+00  0.39160000E+00  0.00000000E+00 -0.10000000E+00  0.20000000E-01    1    0
 VARIABLES= X1,X2,Y1,Y2,R,ID,RK
ZONE T="   86" 
SOLUTIONTIME=     0.08500000,STRANDID=   1
  0.40000000E+00  0.39140000E+00  0.00000000E+00 -0.10000000E+00  0.20000000E-01    1    0
 VARIABLES= X1,X2,Y1,Y2,R,ID,RK
ZONE T="   88" 
SOLUTIONTIME=     0.08700000,STRANDID=   1
  0.40000000E+00  0.39120000E+00  0.00000000E+00 -0.10000000E+00  0.20000000E-01    1    0
 VARIABLES= X1,X2,Y1,Y2,R,ID,RK
ZONE T="   90" 
SOLUTIONTIME=     0.08900000,STRANDID=   1
  0.40000000E+00  0.39100000E+00  0.00000000E+00 -0.10000000E+00  0.20000000E-01    1    0
 VARIABLES= X1,X2,Y1,Y2,R,ID,RK
ZONE T="   92" 
SOLUTIONTIME=     0.09100000,STRANDID=   1
  0.40000000E+00  0.39080000E+00  0.00000000E+00 -0.10000000E+00  0.20000000E-01    1    0
 VARIABLES= X1,X2,Y1,Y2,R,ID,RK
ZONE T="   94" 
SOLUTIONTIME=     0.09300000,STRANDID=   1
  0.40000000E+00  0.39060000E+00  0.00000000E+00 -0.10000000E+00  0.20000000E-01    1    0
 VARIABLES= X1,X2,Y1,Y2,R,ID,RK
ZONE T="   96" 
SOLUTIONTIME=     0.09500000,STRANDID=   1
  0.40000000E+00  0.39040000E+00  0.00000000E+00 -0.10000000E+00  0.20000000E-01    1    0
 VARIABLES= X1,X2,Y1,Y2,R,ID,RK
ZONE T="   98" 
SOLUTIONTIME=     0.09700000,STRANDID=   1
  0.40000000E+00  0.39020000E+00  0.00000000E+00 -0.10000000E+00  0.20000000E-01    1    0
 VARIABLES= X1,X2,Y1,Y2,R,ID,RK
ZONE T="  100" 
SOLUTIONTIME=     0.09900000,STRANDID=   1
  0.40000000E+00  0.39000000E+00  0.00000000E+00 -0.10000000E+00  0.20000000E-01    1    0
 VARIABLES= X1,X2,Y1,Y2,R,ID,RK
ZONE T="  102" 
SOLUTIONTIME=     0.10100000,STRANDID=   1
  0.40000000E+00  0.38980000E+00  0.00000000E+00 -0.10000000E+00  0.20000000E-01    1    0
 VARIABLES= X1,X2,Y1,Y2,R,ID,RK
ZONE T="  104" 
SOLUTIONTIME=     0.10300000,STRANDID=   1
  0.40000000E+00  0.38960000E+00  0.00000000E+00 -0.10000000E+00  0.20000000E-01    1    0
 VARIABLES= X1,X2,Y1,Y2,R,ID,RK
ZONE T="  106" 
SOLUTIONTIME=     0.10500000,STRANDID=   1
  0.40000000E+00  0.38940000E+00  0.00000000E+00 -0.10000000E+00  0.20000000E-01    1    0
 VARIABLES= X1,X2,Y1,Y2,R,ID,RK
ZONE T="  108" 
SOLUTIONTIME=     0.10700001,STRANDID=   1
  0.40000000E+00  0.38920000E+00  0.00000000E+00 -0.10000000E+00  0.20000000E-01    1    0
 VARIABLES= X1,X2,Y1,Y2,R,ID,RK
ZONE T="  110" 
SOLUTIONTIME=     0.10900001,STRANDID=   1
  0.40000000E+00  0.38900000E+00  0.00000000E+00 -0.10000000E+00  0.20000000E-01    1    0
 VARIABLES= X1,X2,Y1,Y2,R,ID,RK
ZONE T="  112" 
SOLUTIONTIME=     0.11100001,STRANDID=   1
  0.40000000E+00  0.38880000E+00  0.00000000E+00 -0.10000000E+00  0.20000000E-01    1    0
 VARIABLES= X1,X2,Y1,Y2,R,ID,RK
ZONE T="  114" 
SOLUTIONTIME=     0.11300001,STRANDID=   1
  0.40000000E+00  0.38860000E+00  0.00000000E+00 -0.10000000E+00  0.20000000E-01    1    0
 VARIABLES= X1,X2,Y1,Y2,R,ID,RK
ZONE T="  116" 
SOLUTIONTIME=     0.11500001,STRANDID=   1
  0.40000000E+00  0.38840000E+00  0.00000000E+00 -0.10000000E+00  0.20000000E-01    1    0
 VARIABLES= X1,X2,Y1,Y2,R,ID,RK
ZONE T="  118" 
SOLUTIONTIME=     0.11700001,STRANDID=   1
  0.40000000E+00  0.38820000E+00  0.00000000E+00 -0.10000000E+00  0.20000000E-01    1    0
 VARIABLES= X1,X2,Y1,Y2,R,ID,RK
ZONE T="  120" 
SOLUTIONTIME=     0.11900001,STRANDID=   1
  0.40000000E+00  0.38800000E+00  0.00000000E+00 -0.10000000E+00  0.20000000E-01    1    0
 VARIABLES= X1,X2,Y1,Y2,R,ID,RK
ZONE T="  122" 
SOLUTIONTIME=     0.12100001,STRANDID=   1
  0.40000000E+00  0.38780000E+00  0.00000000E+00 -0.10000000E+00  0.20000000E-01    1    0
 VARIABLES= X1,X2,Y1,Y2,R,ID,RK
ZONE T="  124" 
SOLUTIONTIME=     0.12300001,STRANDID=   1
  0.40000000E+00  0.38760000E+00  0.00000000E+00 -0.10000000E+00  0.20000000E-01    1    0
 VARIABLES= X1,X2,Y1,Y2,R,ID,RK
ZONE T="  126" 
SOLUTIONTIME=     0.12500001,STRANDID=   1
  0.40000000E+00  0.38740000E+00  0.00000000E+00 -0.10000000E+00  0.20000000E-01    1    0
 VARIABLES= X1,X2,Y1,Y2,R,ID,RK
ZONE T="  128" 
SOLUTIONTIME=     0.12700001,STRANDID=   1
  0.40000000E+00  0.38720000E+00  0.00000000E+00 -0.10000000E+00  0.20000000E-01    1    0
 VARIABLES= X1,X2,Y1,Y2,R,ID,RK
ZONE T="  130" 
SOLUTIONTIME=     0.12900001,STRANDID=   1
  0.40000000E+00  0.38700000E+00  0.00000000E+00 -0.10000000E+00  0.20000000E-01    1    0
 VARIABLES= X1,X2,Y1,Y2,R,ID,RK
ZONE T="  132" 
SOLUTIONTIME=     0.13100001,STRANDID=   1
  0.40000000E+00  0.38680000E+00  0.00000000E+00 -0.10000000E+00  0.20000000E-01    1    0
 VARIABLES= X1,X2,Y1,Y2,R,ID,RK
ZONE T="  134" 
SOLUTIONTIME=     0.13300001,STRANDID=   1
  0.40000000E+00  0.38660000E+00  0.00000000E+00 -0.10000000E+00  0.20000000E-01    1    0
 VARIABLES= X1,X2,Y1,Y2,R,ID,RK
ZONE T="  136" 
SOLUTIONTIME=     0.13500001,STRANDID=   1
  0.40000000E+00  0.38640000E+00  0.00000000E+00 -0.10000000E+00  0.20000000E-01    1    0
 VARIABLES= X1,X2,Y1,Y2,R,ID,RK
ZONE T="  138" 
SOLUTIONTIME=     0.13700001,STRANDID=   1
  0.40000000E+00  0.38620000E+00  0.00000000E+00 -0.10000000E+00  0.20000000E-01    1    0
 VARIABLES= X1,X2,Y1,Y2,R,ID,RK
ZONE T="  140" 
SOLUTIONTIME=     0.13900001,STRANDID=   1
  0.40000000E+00  0.38600000E+00  0.00000000E+00 -0.10000000E+00  0.20000000E-01    1    0
 VARIABLES= X1,X2,Y1,Y2,R,ID,RK
ZONE T="  142" 
SOLUTIONTIME=     0.14100001,STRANDID=   1
  0.40000000E+00  0.38580000E+00  0.00000000E+00 -0.10000000E+00  0.20000000E-01    1    0
 VARIABLES= X1,X2,Y1,Y2,R,ID,RK
ZONE T="  144" 
SOLUTIONTIME=     0.14300001,STRANDID=   1
  0.40000000E+00  0.38560000E+00  0.00000000E+00 -0.10000000E+00  0.20000000E-01    1    0
 VARIABLES= X1,X2,Y1,Y2,R,ID,RK
ZONE T="  146" 
SOLUTIONTIME=     0.14500001,STRANDID=   1
  0.40000000E+00  0.38540000E+00  0.00000000E+00 -0.10000000E+00  0.20000000E-01    1    0
 VARIABLES= X1,X2,Y1,Y2,R,ID,RK
ZONE T="  148" 
SOLUTIONTIME=     0.14700001,STRANDID=   1
  0.40000000E+00  0.38520000E+00  0.00000000E+00 -0.10000000E+00  0.20000000E-01    1    0
 VARIABLES= X1,X2,Y1,Y2,R,ID,RK
ZONE T="  150" 
SOLUTIONTIME=     0.14900001,STRANDID=   1
  0.40000000E+00  0.38500000E+00  0.00000000E+00 -0.10000000E+00  0.20000000E-01    1    0
 VARIABLES= X1,X2,Y1,Y2,R,ID,RK
ZONE T="  152" 
SOLUTIONTIME=     0.15100001,STRANDID=   1
  0.40000000E+00  0.38480000E+00  0.00000000E+00 -0.10000000E+00  0.20000000E-01    1    0
 VARIABLES= X1,X2,Y1,Y2,R,ID,RK
ZONE T="  154" 
SOLUTIONTIME=     0.15300001,STRANDID=   1
  0.40000000E+00  0.38460000E+00  0.00000000E+00 -0.10000000E+00  0.20000000E-01    1    0
 VARIABLES= X1,X2,Y1,Y2,R,ID,RK
ZONE T="  156" 
SOLUTIONTIME=     0.15500001,STRANDID=   1
  0.40000000E+00  0.38440000E+00  0.00000000E+00 -0.10000000E+00  0.20000000E-01    1    0
 VARIABLES= X1,X2,Y1,Y2,R,ID,RK
ZONE T="  158" 
SOLUTIONTIME=     0.15700001,STRANDID=   1
  0.40000000E+00  0.38420000E+00  0.00000000E+00 -0.10000000E+00  0.20000000E-01    1    0
 VARIABLES= X1,X2,Y1,Y2,R,ID,RK
ZONE T="  160" 
SOLUTIONTIME=     0.15900001,STRANDID=   1
  0.40000000E+00  0.38400000E+00  0.00000000E+00 -0.10000000E+00  0.20000000E-01    1    0
 VARIABLES= X1,X2,Y1,Y2,R,ID,RK
ZONE T="  162" 
SOLUTIONTIME=     0.16100001,STRANDID=   1
  0.40000000E+00  0.38380000E+00  0.00000000E+00 -0.10000000E+00  0.20000000E-01    1    0
 VARIABLES= X1,X2,Y1,Y2,R,ID,RK
ZONE T="  164" 
SOLUTIONTIME=     0.16300001,STRANDID=   1
  0.40000000E+00  0.38360000E+00  0.00000000E+00 -0.10000000E+00  0.20000000E-01    1    0
 VARIABLES= X1,X2,Y1,Y2,R,ID,RK
ZONE T="  166" 
SOLUTIONTIME=     0.16500001,STRANDID=   1
  0.40000000E+00  0.38340000E+00  0.00000000E+00 -0.10000000E+00  0.20000000E-01    1    0
 VARIABLES= X1,X2,Y1,Y2,R,ID,RK
ZONE T="  168" 
SOLUTIONTIME=     0.16700001,STRANDID=   1
  0.40000000E+00  0.38320000E+00  0.00000000E+00 -0.10000000E+00  0.20000000E-01    1    0
 VARIABLES= X1,X2,Y1,Y2,R,ID,RK
ZONE T="  170" 
SOLUTIONTIME=     0.16900001,STRANDID=   1
  0.40000000E+00  0.38300000E+00  0.00000000E+00 -0.10000000E+00  0.20000000E-01    1    0
 VARIABLES= X1,X2,Y1,Y2,R,ID,RK
ZONE T="  172" 
SOLUTIONTIME=     0.17100001,STRANDID=   1
  0.40000000E+00  0.38280000E+00  0.00000000E+00 -0.10000000E+00  0.20000000E-01    1    0
 VARIABLES= X1,X2,Y1,Y2,R,ID,RK
ZONE T="  174" 
SOLUTIONTIME=     0.17300001,STRANDID=   1
  0.40000000E+00  0.38260000E+00  0.00000000E+00 -0.10000000E+00  0.20000000E-01    1    0
 VARIABLES= X1,X2,Y1,Y2,R,ID,RK
ZONE T="  176" 
SOLUTIONTIME=     0.17500001,STRANDID=   1
  0.40000000E+00  0.38240000E+00  0.00000000E+00 -0.10000000E+00  0.20000000E-01    1    0
 VARIABLES= X1,X2,Y1,Y2,R,ID,RK
ZONE T="  178" 
SOLUTIONTIME=     0.17700001,STRANDID=   1
  0.40000000E+00  0.38220000E+00  0.00000000E+00 -0.10000000E+00  0.20000000E-01    1    0
 VARIABLES= X1,X2,Y1,Y2,R,ID,RK
ZONE T="  180" 
SOLUTIONTIME=     0.17900001,STRANDID=   1
  0.40000000E+00  0.38200000E+00  0.00000000E+00 -0.10000000E+00  0.20000000E-01    1    0
 VARIABLES= X1,X2,Y1,Y2,R,ID,RK
ZONE T="  182" 
SOLUTIONTIME=     0.18100001,STRANDID=   1
  0.40000000E+00  0.38180000E+00  0.00000000E+00 -0.10000000E+00  0.20000000E-01    1    0
 VARIABLES= X1,X2,Y1,Y2,R,ID,RK
ZONE T="  184" 
SOLUTIONTIME=     0.18300001,STRANDID=   1
  0.40000000E+00  0.38160000E+00  0.00000000E+00 -0.10000000E+00  0.20000000E-01    1    0
 VARIABLES= X1,X2,Y1,Y2,R,ID,RK
ZONE T="  186" 
SOLUTIONTIME=     0.18500001,STRANDID=   1
  0.40000000E+00  0.38140000E+00  0.00000000E+00 -0.10000000E+00  0.20000000E-01    1    0
 VARIABLES= X1,X2,Y1,Y2,R,ID,RK
ZONE T="  188" 
SOLUTIONTIME=     0.18700001,STRANDID=   1
  0.40000000E+00  0.38120000E+00  0.00000000E+00 -0.10000000E+00  0.20000000E-01    1    0
 VARIABLES= X1,X2,Y1,Y2,R,ID,RK
ZONE T="  190" 
SOLUTIONTIME=     0.18900001,STRANDID=   1
  0.40000000E+00  0.38100000E+00  0.00000000E+00 -0.10000000E+00  0.20000000E-01    1    0
 VARIABLES= X1,X2,Y1,Y2,R,ID,RK
ZONE T="  192" 
SOLUTIONTIME=     0.19100001,STRANDID=   1
  0.40000000E+00  0.38080000E+00  0.00000000E+00 -0.10000000E+00  0.20000000E-01    1    0
 VARIABLES= X1,X2,Y1,Y2,R,ID,RK
ZONE T="  194" 
SOLUTIONTIME=     0.19300001,STRANDID=   1
  0.40000000E+00  0.38060000E+00  0.00000000E+00 -0.10000000E+00  0.20000000E-01    1    0
 VARIABLES= X1,X2,Y1,Y2,R,ID,RK
ZONE T="  196" 
SOLUTIONTIME=     0.19500001,STRANDID=   1
  0.40000000E+00  0.38040000E+00  0.00000000E+00 -0.10000000E+00  0.20000000E-01    1    0
 VARIABLES= X1,X2,Y1,Y2,R,ID,RK
ZONE T="  198" 
SOLUTIONTIME=     0.19700001,STRANDID=   1
  0.40000000E+00  0.38020000E+00  0.00000000E+00 -0.10000000E+00  0.20000000E-01    1    0
 VARIABLES= X1,X2,Y1,Y2,R,ID,RK
ZONE T="  200" 
SOLUTIONTIME=     0.19900001,STRANDID=   1
  0.40000000E+00  0.38000000E+00  0.00000000E+00 -0.10000000E+00  0.20000000E-01    1    0
 VARIABLES= X1,X2,Y1,Y2,R,ID,RK
ZONE T="  202" 
SOLUTIONTIME=     0.20100001,STRANDID=   1
  0.40000000E+00  0.37980000E+00  0.00000000E+00 -0.10000000E+00  0.20000000E-01    1    0
 VARIABLES= X1,X2,Y1,Y2,R,ID,RK
ZONE T="  204" 
SOLUTIONTIME=     0.20300001,STRANDID=   1
  0.40000000E+00  0.37960000E+00  0.00000000E+00 -0.10000000E+00  0.20000000E-01    1    0
 VARIABLES= X1,X2,Y1,Y2,R,ID,RK
ZONE T="  206" 
SOLUTIONTIME=     0.20500001,STRANDID=   1
  0.40000000E+00  0.37940000E+00  0.00000000E+00 -0.10000000E+00  0.20000000E-01    1    0
 VARIABLES= X1,X2,Y1,Y2,R,ID,RK
ZONE T="  208" 
SOLUTIONTIME=     0.20700001,STRANDID=   1
  0.40000000E+00  0.37920000E+00  0.00000000E+00 -0.10000000E+00  0.20000000E-01    1    0
 VARIABLES= X1,X2,Y1,Y2,R,ID,RK
ZONE T="  210" 
SOLUTIONTIME=     0.20900001,STRANDID=   1
  0.40000000E+00  0.37900000E+00  0.00000000E+00 -0.10000000E+00  0.20000000E-01    1    0
 VARIABLES= X1,X2,Y1,Y2,R,ID,RK
ZONE T="  212" 
SOLUTIONTIME=     0.21100001,STRANDID=   1
  0.40000000E+00  0.37880000E+00  0.00000000E+00 -0.10000000E+00  0.20000000E-01    1    0
 VARIABLES= X1,X2,Y1,Y2,R,ID,RK
ZONE T="  214" 
SOLUTIONTIME=     0.21300001,STRANDID=   1
  0.40000000E+00  0.37860000E+00  0.00000000E+00 -0.10000000E+00  0.20000000E-01    1    0
 VARIABLES= X1,X2,Y1,Y2,R,ID,RK
ZONE T="  216" 
SOLUTIONTIME=     0.21500001,STRANDID=   1
  0.40000000E+00  0.37840000E+00  0.00000000E+00 -0.10000000E+00  0.20000000E-01    1    0
 VARIABLES= X1,X2,Y1,Y2,R,ID,RK
ZONE T="  218" 
SOLUTIONTIME=     0.21700001,STRANDID=   1
  0.40000000E+00  0.37820000E+00  0.00000000E+00 -0.10000000E+00  0.20000000E-01    1    0
 VARIABLES= X1,X2,Y1,Y2,R,ID,RK
ZONE T="  220" 
SOLUTIONTIME=     0.21900001,STRANDID=   1
  0.40000000E+00  0.37800000E+00  0.00000000E+00 -0.10000000E+00  0.20000000E-01    1    0
 VARIABLES= X1,X2,Y1,Y2,R,ID,RK
ZONE T="  222" 
SOLUTIONTIME=     0.22100001,STRANDID=   1
  0.40000000E+00  0.37780000E+00  0.00000000E+00 -0.10000000E+00  0.20000000E-01    1    0
 VARIABLES= X1,X2,Y1,Y2,R,ID,RK
ZONE T="  224" 
SOLUTIONTIME=     0.22300001,STRANDID=   1
  0.40000000E+00  0.37760000E+00  0.00000000E+00 -0.10000000E+00  0.20000000E-01    1    0
 VARIABLES= X1,X2,Y1,Y2,R,ID,RK
ZONE T="  226" 
SOLUTIONTIME=     0.22500001,STRANDID=   1
  0.40000000E+00  0.37740000E+00  0.00000000E+00 -0.10000000E+00  0.20000000E-01    1    0
 VARIABLES= X1,X2,Y1,Y2,R,ID,RK
ZONE T="  228" 
SOLUTIONTIME=     0.22700001,STRANDID=   1
  0.40000000E+00  0.37720000E+00  0.00000000E+00 -0.10000000E+00  0.20000000E-01    1    0
 VARIABLES= X1,X2,Y1,Y2,R,ID,RK
ZONE T="  230" 
SOLUTIONTIME=     0.22900001,STRANDID=   1
  0.40000000E+00  0.37700000E+00  0.00000000E+00 -0.10000000E+00  0.20000000E-01    1    0
 VARIABLES= X1,X2,Y1,Y2,R,ID,RK
ZONE T="  232" 
SOLUTIONTIME=     0.23100001,STRANDID=   1
  0.40000000E+00  0.37680000E+00  0.00000000E+00 -0.10000000E+00  0.20000000E-01    1    0
 VARIABLES= X1,X2,Y1,Y2,R,ID,RK
ZONE T="  234" 
SOLUTIONTIME=     0.23300001,STRANDID=   1
  0.40000000E+00  0.37660000E+00  0.00000000E+00 -0.10000000E+00  0.20000000E-01    1    0
 VARIABLES= X1,X2,Y1,Y2,R,ID,RK
ZONE T="  236" 
SOLUTIONTIME=     0.23500001,STRANDID=   1
  0.40000000E+00  0.37640000E+00  0.00000000E+00 -0.10000000E+00  0.20000000E-01    1    0
 VARIABLES= X1,X2,Y1,Y2,R,ID,RK
ZONE T="  238" 
SOLUTIONTIME=     0.23700001,STRANDID=   1
  0.40000000E+00  0.37620000E+00  0.00000000E+00 -0.10000000E+00  0.20000000E-01    1    0
 VARIABLES= X1,X2,Y1,Y2,R,ID,RK
ZONE T="  240" 
SOLUTIONTIME=     0.23900001,STRANDID=   1
  0.40000000E+00  0.37600000E+00  0.00000000E+00 -0.10000000E+00  0.20000000E-01    1    0
 VARIABLES= X1,X2,Y1,Y2,R,ID,RK
ZONE T="  242" 
SOLUTIONTIME=     0.24100001,STRANDID=   1
  0.40000000E+00  0.37580000E+00  0.00000000E+00 -0.10000000E+00  0.20000000E-01    1    0
 VARIABLES= X1,X2,Y1,Y2,R,ID,RK
ZONE T="  244" 
SOLUTIONTIME=     0.24300001,STRANDID=   1
  0.40000000E+00  0.37560000E+00  0.00000000E+00 -0.10000000E+00  0.20000000E-01    1    0
 VARIABLES= X1,X2,Y1,Y2,R,ID,RK
ZONE T="  246" 
SOLUTIONTIME=     0.24500001,STRANDID=   1
  0.40000000E+00  0.37540000E+00  0.00000000E+00 -0.10000000E+00  0.20000000E-01    1    0
 VARIABLES= X1,X2,Y1,Y2,R,ID,RK
ZONE T="  248" 
SOLUTIONTIME=     0.24700001,STRANDID=   1
  0.40000000E+00  0.37520000E+00  0.00000000E+00 -0.10000000E+00  0.20000000E-01    1    0
 VARIABLES= X1,X2,Y1,Y2,R,ID,RK
ZONE T="  250" 
SOLUTIONTIME=     0.24900001,STRANDID=   1
  0.40000000E+00  0.37500000E+00  0.00000000E+00 -0.10000000E+00  0.20000000E-01    1    0
 VARIABLES= X1,X2,Y1,Y2,R,ID,RK
ZONE T="  252" 
SOLUTIONTIME=     0.25100001,STRANDID=   1
  0.40000000E+00  0.37480000E+00  0.00000000E+00 -0.10000000E+00  0.20000000E-01    1    0
 VARIABLES= X1,X2,Y1,Y2,R,ID,RK
ZONE T="  254" 
SOLUTIONTIME=     0.25300001,STRANDID=   1
  0.40000000E+00  0.37460000E+00  0.00000000E+00 -0.10000000E+00  0.20000000E-01    1    0
 VARIABLES= X1,X2,Y1,Y2,R,ID,RK
ZONE T="  256" 
SOLUTIONTIME=     0.25500001,STRANDID=   1
  0.40000000E+00  0.37440000E+00  0.00000000E+00 -0.10000000E+00  0.20000000E-01    1    0
 VARIABLES= X1,X2,Y1,Y2,R,ID,RK
ZONE T="  258" 
SOLUTIONTIME=     0.25700001,STRANDID=   1
  0.40000000E+00  0.37420000E+00  0.00000000E+00 -0.10000000E+00  0.20000000E-01    1    0
 VARIABLES= X1,X2,Y1,Y2,R,ID,RK
ZONE T="  260" 
SOLUTIONTIME=     0.25900001,STRANDID=   1
  0.40000000E+00  0.37400000E+00  0.00000000E+00 -0.10000000E+00  0.20000000E-01    1    0
 VARIABLES= X1,X2,Y1,Y2,R,ID,RK
ZONE T="  262" 
SOLUTIONTIME=     0.26100001,STRANDID=   1
  0.40000000E+00  0.37380000E+00  0.00000000E+00 -0.10000000E+00  0.20000000E-01    1    0
 VARIABLES= X1,X2,Y1,Y2,R,ID,RK
ZONE T="  264" 
SOLUTIONTIME=     0.26300001,STRANDID=   1
  0.40000000E+00  0.37360000E+00  0.00000000E+00 -0.10000000E+00  0.20000000E-01    1    0
 VARIABLES= X1,X2,Y1,Y2,R,ID,RK
ZONE T="  266" 
SOLUTIONTIME=     0.26500001,STRANDID=   1
  0.40000000E+00  0.37340000E+00  0.00000000E+00 -0.10000000E+00  0.20000000E-01    1    0
 VARIABLES= X1,X2,Y1,Y2,R,ID,RK
ZONE T="  268" 
SOLUTIONTIME=     0.26700001,STRANDID=   1
  0.40000000E+00  0.37320000E+00  0.00000000E+00 -0.10000000E+00  0.20000000E-01    1    0
 VARIABLES= X1,X2,Y1,Y2,R,ID,RK
ZONE T="  270" 
SOLUTIONTIME=     0.26900001,STRANDID=   1
  0.40000000E+00  0.37300000E+00  0.00000000E+00 -0.10000000E+00  0.20000000E-01    1    0
 VARIABLES= X1,X2,Y1,Y2,R,ID,RK
ZONE T="  272" 
SOLUTIONTIME=     0.27100001,STRANDID=   1
  0.40000000E+00  0.37280000E+00  0.00000000E+00 -0.10000000E+00  0.20000000E-01    1    0
 VARIABLES= X1,X2,Y1,Y2,R,ID,RK
ZONE T="  274" 
SOLUTIONTIME=     0.27300001,STRANDID=   1
  0.40000000E+00  0.37260000E+00  0.00000000E+00 -0.10000000E+00  0.20000000E-01    1    0
 VARIABLES= X1,X2,Y1,Y2,R,ID,RK
ZONE T="  276" 
SOLUTIONTIME=     0.27500001,STRANDID=   1
  0.40000000E+00  0.37240000E+00  0.00000000E+00 -0.10000000E+00  0.20000000E-01    1    0
 VARIABLES= X1,X2,Y1,Y2,R,ID,RK
ZONE T="  278" 
SOLUTIONTIME=     0.27700001,STRANDID=   1
  0.40000000E+00  0.37220000E+00  0.00000000E+00 -0.10000000E+00  0.20000000E-01    1    0
 VARIABLES= X1,X2,Y1,Y2,R,ID,RK
ZONE T="  280" 
SOLUTIONTIME=     0.27900001,STRANDID=   1
  0.40000000E+00  0.37200000E+00  0.00000000E+00 -0.10000000E+00  0.20000000E-01    1    0
 VARIABLES= X1,X2,Y1,Y2,R,ID,RK
ZONE T="  282" 
SOLUTIONTIME=     0.28100001,STRANDID=   1
  0.40000000E+00  0.37180000E+00  0.00000000E+00 -0.10000000E+00  0.20000000E-01    1    0
 VARIABLES= X1,X2,Y1,Y2,R,ID,RK
ZONE T="  284" 
SOLUTIONTIME=     0.28300001,STRANDID=   1
  0.40000000E+00  0.37160000E+00  0.00000000E+00 -0.10000000E+00  0.20000000E-01    1    0
 VARIABLES= X1,X2,Y1,Y2,R,ID,RK
ZONE T="  286" 
SOLUTIONTIME=     0.28500001,STRANDID=   1
  0.40000000E+00  0.37140000E+00  0.00000000E+00 -0.10000000E+00  0.20000000E-01    1    0
 VARIABLES= X1,X2,Y1,Y2,R,ID,RK
ZONE T="  288" 
SOLUTIONTIME=     0.28700001,STRANDID=   1
  0.40000000E+00  0.37120000E+00  0.00000000E+00 -0.10000000E+00  0.20000000E-01    1    0
 VARIABLES= X1,X2,Y1,Y2,R,ID,RK
ZONE T="  290" 
SOLUTIONTIME=     0.28900001,STRANDID=   1
  0.40000000E+00  0.37100000E+00  0.00000000E+00 -0.10000000E+00  0.20000000E-01    1    0
 VARIABLES= X1,X2,Y1,Y2,R,ID,RK
ZONE T="  292" 
SOLUTIONTIME=     0.29100001,STRANDID=   1
  0.40000000E+00  0.37080000E+00  0.00000000E+00 -0.10000000E+00  0.20000000E-01    1    0
 VARIABLES= X1,X2,Y1,Y2,R,ID,RK
ZONE T="  294" 
SOLUTIONTIME=     0.29300001,STRANDID=   1
  0.40000000E+00  0.37060000E+00  0.00000000E+00 -0.10000000E+00  0.20000000E-01    1    0
 VARIABLES= X1,X2,Y1,Y2,R,ID,RK
ZONE T="  296" 
SOLUTIONTIME=     0.29500001,STRANDID=   1
  0.40000000E+00  0.37040000E+00  0.00000000E+00 -0.10000000E+00  0.20000000E-01    1    0
 VARIABLES= X1,X2,Y1,Y2,R,ID,RK
ZONE T="  298" 
SOLUTIONTIME=     0.29700001,STRANDID=   1
  0.40000000E+00  0.37020000E+00  0.00000000E+00 -0.10000000E+00  0.20000000E-01    1    0
 VARIABLES= X1,X2,Y1,Y2,R,ID,RK
ZONE T="  300" 
SOLUTIONTIME=     0.29900001,STRANDID=   1
  0.40000000E+00  0.37000000E+00  0.00000000E+00 -0.10000000E+00  0.20000000E-01    1    0
 VARIABLES= X1,X2,Y1,Y2,R,ID,RK
ZONE T="  302" 
SOLUTIONTIME=     0.30100001,STRANDID=   1
  0.40000000E+00  0.36980000E+00  0.00000000E+00 -0.10000000E+00  0.20000000E-01    1    0
 VARIABLES= X1,X2,Y1,Y2,R,ID,RK
ZONE T="  304" 
SOLUTIONTIME=     0.30300001,STRANDID=   1
  0.40000000E+00  0.36960000E+00  0.00000000E+00 -0.10000000E+00  0.20000000E-01    1    0
 VARIABLES= X1,X2,Y1,Y2,R,ID,RK
ZONE T="  306" 
SOLUTIONTIME=     0.30500001,STRANDID=   1
  0.40000000E+00  0.36940000E+00  0.00000000E+00 -0.10000000E+00  0.20000000E-01    1    0
 VARIABLES= X1,X2,Y1,Y2,R,ID,RK
ZONE T="  308" 
SOLUTIONTIME=     0.30700001,STRANDID=   1
  0.40000000E+00  0.36920000E+00  0.00000000E+00 -0.10000000E+00  0.20000000E-01    1    0
 VARIABLES= X1,X2,Y1,Y2,R,ID,RK
ZONE T="  310" 
SOLUTIONTIME=     0.30900001,STRANDID=   1
  0.40000000E+00  0.36900000E+00  0.00000000E+00 -0.10000000E+00  0.20000000E-01    1    0
 VARIABLES= X1,X2,Y1,Y2,R,ID,RK
ZONE T="  312" 
SOLUTIONTIME=     0.31100001,STRANDID=   1
  0.40000000E+00  0.36880000E+00  0.00000000E+00 -0.10000000E+00  0.20000000E-01    1    0
 VARIABLES= X1,X2,Y1,Y2,R,ID,RK
ZONE T="  314" 
SOLUTIONTIME=     0.31300001,STRANDID=   1
  0.40000000E+00  0.36860000E+00  0.00000000E+00 -0.10000000E+00  0.20000000E-01    1    0
 VARIABLES= X1,X2,Y1,Y2,R,ID,RK
ZONE T="  316" 
SOLUTIONTIME=     0.31500001,STRANDID=   1
  0.40000000E+00  0.36840000E+00  0.00000000E+00 -0.10000000E+00  0.20000000E-01    1    0
 VARIABLES= X1,X2,Y1,Y2,R,ID,RK
ZONE T="  318" 
SOLUTIONTIME=     0.31700002,STRANDID=   1
  0.40000000E+00  0.36820000E+00  0.00000000E+00 -0.10000000E+00  0.20000000E-01    1    0
 VARIABLES= X1,X2,Y1,Y2,R,ID,RK
ZONE T="  320" 
SOLUTIONTIME=     0.31900002,STRANDID=   1
  0.40000000E+00  0.36800000E+00  0.00000000E+00 -0.10000000E+00  0.20000000E-01    1    0
 VARIABLES= X1,X2,Y1,Y2,R,ID,RK
ZONE T="  322" 
SOLUTIONTIME=     0.32100002,STRANDID=   1
  0.40000000E+00  0.36780000E+00  0.00000000E+00 -0.10000000E+00  0.20000000E-01    1    0
 VARIABLES= X1,X2,Y1,Y2,R,ID,RK
ZONE T="  324" 
SOLUTIONTIME=     0.32300002,STRANDID=   1
  0.40000000E+00  0.36760000E+00  0.00000000E+00 -0.10000000E+00  0.20000000E-01    1    0
 VARIABLES= X1,X2,Y1,Y2,R,ID,RK
ZONE T="  326" 
SOLUTIONTIME=     0.32500002,STRANDID=   1
  0.40000000E+00  0.36740000E+00  0.00000000E+00 -0.10000000E+00  0.20000000E-01    1    0
 VARIABLES= X1,X2,Y1,Y2,R,ID,RK
ZONE T="  328" 
SOLUTIONTIME=     0.32700002,STRANDID=   1
  0.40000000E+00  0.36720000E+00  0.00000000E+00 -0.10000000E+00  0.20000000E-01    1    0
 VARIABLES= X1,X2,Y1,Y2,R,ID,RK
ZONE T="  330" 
SOLUTIONTIME=     0.32900002,STRANDID=   1